# vtk DataFile Version 2.0
PFLOTRAN output
ASCII
DATASET UNSTRUCTURED_GRID
POINT_DATA	 9
SCALARS Liquid_Pressure      float 1
LOOKUP_TABLE default
 1.013250E+06  1.013250E+06  1.013250E+06  1.013250E+06  1.013250E+06  1.013250E+06  1.013250E+06  1.013250E+06  1.013250E+06


SCALARS Permeability_X       float 1
LOOKUP_TABLE default
 1.000000E-12  1.000000E-12  1.000000E-12  1.000000E-12  1.000000E-12  1.000000E-12  1.000000E-12  1.000000E-12  1.000000E-12


SCALARS Material_ID          int 1
LOOKUP_TABLE default
  1
  1
  1
  1
  1
  1
  1
  1
  1


