# vtk DataFile Version 2.0
PFLOTRAN output
ASCII
DATASET UNSTRUCTURED_GRID
CELL_DATA       9
SCALARS Liquid_Pressure      float 1
LOOKUP_TABLE default
 2.000000E+06  2.000000E+06  2.000000E+06  1.500065E+06  1.500065E+06  1.500065E+06  1.000000E+06  1.000000E+06  1.000000E+06


SCALARS Permeability_X       float 1
LOOKUP_TABLE default
 1.000000E-12  1.000000E-12  1.000000E-12  1.000000E-12  1.000000E-12  1.000000E-12  1.000000E-12  1.000000E-12  1.000000E-12


SCALARS Material_ID          int 1
LOOKUP_TABLE default
  1
  1
  1
  1
  1
  1
  1
  1
  1


