# vtk DataFile Version 4.1
vtk output
ASCII
DATASET UNSTRUCTURED_GRID
POINTS 1764 float
0.0333333 -0.495833 0 0.133333 -0.495833 0 0.0333333 -0.483333 0 
-0.025 0.4625 0 -0.025 0.475 0 -0.1 0.4875 0 
-0.025 0.483333 0 -0.025 0.495833 0 -0.1 0.495833 0 
-0.1 -0.4875 0 -0.025 -0.475 0 -0.025 -0.4625 0 
-0.025 0.441667 0 -0.025 0.454167 0 -0.1 0.479167 0 
0.00416667 0.233333 0 0.0166667 0.245833 0 0.00416667 0.245833 0 
-0.231509 0.284613 0 -0.196278 0.417184 0 -0.299881 0.301305 0 
0.0333333 0.4625 0 0.133333 0.4875 0 0.0333333 0.475 0 
-0.417868 -0.461374 0 -0.242868 -0.461374 0 -0.34647 -0.345496 0 
-0.442245 0.0447072 0 -0.340376 0.0447072 0 -0.370848 0.178829 0 
-0.025 0.420833 0 -0.025 0.433333 0 -0.1 0.470833 0 
-0.197509 0.00416667 0 -0.0493772 0.00416667 0 -0.0493772 0.0166667 0 
0.0333333 -0.454167 0 0.133333 -0.479167 0 0.0333333 -0.441667 0 
0.0333333 0.441667 0 0.133333 0.479167 0 0.0333333 0.454167 0 
-0.476201 -0.419707 0 -0.404804 -0.303829 0 -0.476201 -0.294707 0 
-0.324258 -0.217972 0 -0.255886 -0.201279 0 -0.293787 -0.0838503 0 
0.00416667 -0.266667 0 0.0166667 -0.254167 0 0.00416667 -0.254167 0 
0.0333333 0.483333 0 0.133333 0.495833 0 0.0333333 0.495833 0 
-0.025 0.4 0 -0.025 0.4125 0 -0.1 0.4625 0 
-0.34647 0.345496 0 -0.242868 0.461374 0 -0.417868 0.461374 0 
-0.146974 -0.185739 0 -0.0367436 -0.11831 0 -0.0367436 -0.10581 0 
-0.146974 -0.235739 0 -0.0367436 -0.24331 0 -0.0367436 -0.23081 0 
-0.146974 -0.219072 0 -0.0367436 -0.201643 0 -0.0367436 -0.189143 0 
0.0166667 0.254167 0 0.00416667 0.266667 0 0.00416667 0.254167 0 
-0.0367436 0.251643 0 -0.0367436 0.264143 0 -0.146974 0.244072 0 
-0.370848 -0.178829 0 -0.340376 -0.0447072 0 -0.442245 -0.0447072 0 
-0.476201 -0.211374 0 -0.404804 -0.220496 0 -0.476201 -0.0863739 0 
0.0333333 0.420833 0 0.133333 0.470833 0 0.0333333 0.433333 0 
0.0666667 0.375 0 0.166667 0.3125 0 0.166667 0.4375 0 
-0.476201 0.294707 0 -0.404804 0.303829 0 -0.476201 0.419707 0 
-0.476201 0.0863739 0 -0.404804 0.220496 0 -0.476201 0.211374 0 
0.0333333 0.4 0 0.133333 0.4625 0 0.0333333 0.4125 0 
-0.0367436 0.314143 0 -0.0367436 0.326643 0 -0.146974 0.269072 0 
-0.196278 -0.417184 0 -0.231509 -0.284613 0 -0.299881 -0.301305 0 
0.0333333 0.3375 0 0.133333 0.2875 0 0.0333333 0.35 0 
-0.293787 0.0838503 0 -0.255886 0.201279 0 -0.324258 0.217972 0 
0.0333333 -0.0166667 0 0.133333 -0.00416667 0 0.0333333 -0.00416667 0 
-0.136744 0.43081 0 -0.171974 0.298239 0 -0.0617436 0.35581 0 
0.0333333 0.316667 0 0.133333 0.279167 0 0.0333333 0.329167 0 
-0.1 -0.470833 0 -0.025 -0.433333 0 -0.025 -0.420833 0 
-0.0367436 0.272476 0 -0.0367436 0.284976 0 -0.146974 0.252406 0 
0.0333333 -0.475 0 0.133333 -0.4875 0 0.0333333 -0.4625 0 
-0.1 -0.495833 0 -0.025 -0.495833 0 -0.025 -0.483333 0 
0.0333333 -0.4125 0 0.133333 -0.4625 0 0.0333333 -0.4 0 
0.0666667 -0.375 0 0.166667 -0.4375 0 0.166667 -0.3125 0 
-0.0617436 -0.35581 0 -0.171974 -0.298239 0 -0.1367
4 -0.43081 0 
-0.1 -0.479167 0 -0.025 -0.454167 0 -0.025 -0.441667 0 
0.05 -0.2625 0 0.0375 -0.3 0 0.1375 -0.2625 0 
0.0333333 -0.433333 0 0.133333 -0.470833 0 0.0333333 -0.420833 0 
-0.025 -0.379167 0 -0.1 -0.454167 0 -0.025 -0.391667 0 
-0.1 -0.4625 0 -0.025 -0.4125 0 -0.025 -0.4 0 
0.0333333 -0.3375 0 0.0333333 -0.35 0 0.133333 -0.2875 0 
0.0333333 -0.316667 0 0.0333333 -0.329167 0 0.133333 -0.279167 0 
0.00416667 -0.308333 0 0.0166667 -0.270833 0 0.00416667 -0.295833 0 
-0.0367436 -0.326643 0 -0.0367436 -0.314143 0 -0.146974 -0.269072 0 
0.00416667 -0.2875 0 0.0166667 -0.2625 0 0.00416667 -0.275 0 
-0.0367436 -0.30581 0 -0.0367436 -0.29331 0 -0.146974 -0.260739 0 
-0.0367436 -0.264143 0 -0.0367436 -0.251643 0 -0.146974 -0.244072 0 
-0.0367436 -0.284976 0 -0.0367436 -0.272476 0 -0.146974 -0.252406 0 
0.00416667 -0.245833 0 0.0166667 -0.245833 0 0.00416667 -0.233333 0 
0.0166667 -0.2375 0 0.00416667 -0.2125 0 0.00416667 -0.225 0 
0.0333333 -0.183333 0 0.133333 -0.220833 0 0.0333333 -0.170833 0 
-0.146974 -0.202406 0 -0.0367436 -0.159976 0 -0.0367436 -0.147476 0 
-0.0367436 -0.126643 0 -0.146974 -0.194072 0 -0.0367436 -0.139143 0 
-0.146974 -0.227406 0 -0.0367436 -0.222476 0 -0.0367436 -0.209976 0 
0.0166667 -0.229167 0 0.00416667 -0.191667 0 0.00416667 -0.204167 0 
0.05 -0.2375 0 0.1375 -0.2375 0 0.0375 -0.2 0 
0.0333333 -0.0875 0 0.0333333 -0.1 0 0.133333 -0.0375 0 
-0.146974 -0.210739 0 -0.0367436 -0.18081 0 -0.0367436 -0.16831 0 
0.0666667 -0.125 0 0.166667 -0.1875 0 0.166667 -0.0625 0 
0.0333333 -0.1625 0 0.133333 -0.2125 0 0.0333333 -0.15 0 
-0.196352 -0.169072 0 -0.0861208 -0.0891431 0 -0.234252 -0.0516431 0 
0.0333333 -0.0583333 0 0.133333 -0.0208333 0 0.0333333 -0.0458333 0 
-0.197509 -0.0125 0 -0.0493772 -0.0375 0 -0.0493772 -0.025 0 
0.0333333 -0.0791667 0 0.133333 -0.0291667 0 0.0333333 -0.0666667 0 
-0.197509 0.0208333 0 -0.0493772 0.0458333 0 -0.0493772 0.0583333 0 
-0.197509 -0.0208333 0 -0.0493772 -0.0583333 0 -0.0493772 -0.0458333 0 
-0.197509 -0.00416667 0 -0.0493772 -0.0166667 0 -0.0493772 -0.00416667 0 
0.0333333 -0.0375 0 0.133333 -0.0125 0 0.0333333 -0.025 0 
0.0333333 0.025 0 0.133333 0.0125 0 0.0333333 0.0375 0 
0.0333333 0.00416667 0 0.133333 0.00416667 0 0.0333333 0.0166667 0 
0.0333333 0.0666667 0 0.133333 0.0291667 0 0.0333333 0.0791667 0 
-0.0367436 0.126643 0 -0.0367436 0.139143 0 -0.146974 0.194072 0 
0.0333333 0.0458333 0 0.133333 0.0208333 0 0.0333333 0.0583333 0 
-0.197509 0.0125 0 -0.0493772 0.025 0 -0.0493772 0.0375 0 
-0.196352 0.169072 0 -0.234252 0.0516431 0 -0.0861208 0.0891431 0 
-0.0367436 0.16831 0 -0.0367436 0.18081 0 -0.146974 0.210739 0 
0.0333333 0.1625 0 0.0333333 0.15 0 0.133333 0.2125 0 
-0.146974 0.185739 0 -0.0367436 0.10581 0 -0.0367436 0.11831 0 
0.0666667 0.125 0 0.166667 0.0625 0 0.166667 0.1875 0 
0.0333333 0.0875 0 0.133333 0.0375 0 0.0333333 0.1 0 
0.00416667 0.191667 0 0.0166667 0.229167 0 0.00416667 0.204167 0 
-0.0367436 0.147476 0 -0.0367436 0.159976 0 -0.146974 0.202406 0 
0.0333333 0.183333 0 0.0333333 0.170833 0 0.133333 0.220833 0 
0.05 0.2375 0 0.0375 0.2 0 0.1375 0.2375 0 
0.00416667 0.2125 0 0.0166667 0.2375 0 0.00416667 0.225 0 
-0.0367436 0.189143 0 -0.0367436 0.201643 0 -0.146974 0.219072 0 
-0.0367436 0.23081 0 -0.0367436 0.24331 0 -0.146974 0.235739 0 
-0.0367436 0.209976 0 -0.0367436 0.222476 0 -0.146974 0.227406 0 
-0.0367436 0.29331 0 -0.0367436 0.30581 0 -0.146974 0.260739 0 
-0.1 0.454167 0 -0.025 0.379167 0 -0.025 0.391667 0 
0.05 0.2625 0 0.1375 0.2625 0 0.0375 0.3 0 
0.0166667 0.2625 0 0.00416667 0.2875 0 0.00416667 0.275 0 
0.0166667 0.270833 0 0.00416667 0.308333 0 0.00416667 0.295833 0 
-1.3471e-18 0.00273346 0.0219998 -1.3471e-18 0.0152335 0.0219998 -5.38839e-18 -0.00156614 0.087999 
2.55135e-18 0.441667 -0.208333 1.02054e-17 0.479167 -0.233333 2.55135e-18 0.454167 -0.208333 
2.44894e-17 -0.191667 -0.433275 2.1417e-17 -0.0666667 -0.3831 9.18128e-18 -0.141667 -0.283275 
-1.67096e-17 0.216009 0.339555 -4.17739e-18 0.169627 0.234889 -4.17739e-18 0.182127 0.234889 
4.07858e-18 0.00416667 -0.233275 1.63143e-17 0.00416667 -0.3331 4.07858e-18 0.0166667 -0.233275 
-4.17739e-18 0.315461 0.234889 -4.17739e-18 0.327961 0.234889 -1.67096e-17 0.274343 0.339555 
4.08216e-18 -0.129167 -0.133333 1.02054e-18 -0.179167 -0.183333 1.02054e-18 -0.166667 -0.183333 
-1.3471e-18 -0.0389332 0.0219998 -1.3471e-18 -0.0264332 0.0219998 -5.38839e-18 -0.0182328 0.087999 
-1.67096e-17 0.199343 0.339555 -4.17739e-18 0.127961 0.234889 -4.17739e-18 0.140461 0.234889 
-1.3471e-18 0.0235668 0.0219998 -1.3471e-18 0.0360668 0.0219998 -5.38839e-18 0.00676719 0.087999 
0 -0.470833 0.0333333 0 -0.458333 0.0333333 0 -0.470833 0.133333 
4.08216e-18 -0.120833 -0.133333 1.02054e-18 -0.158333 -0.183333 1.02054e-18 -0.145833 -0.183333 
1.78372e-17 -0.465368 -0.291303 2.54912e-17 -0.465368 -0.416303 1.77705e-17 -0.361472 -0.290214 
2.52911e-18 -0.315368 -0.20797 1.01164e-17 -0.298972 -0.231881 2.52911e-18 -0.302868 -0.20797 
4.07858e-18 0.108333 -0.233275 1.63143e-17 0.0458333 -0.3331 4.07858e-18 0.120833 -0.233275 
-1.6234e-17 -0.308752 0.331789 -4.05851e-18 -0.317813 0.232947 -4.05851e-18 -0.305313 0.232947 
0 -0.166667 0.0333333 0 -0.154167 0.0333333 0 -0.154167 0.133333 
2.79955e-17 0.298486 -0.457202 2.79955e-17 0.423486 -0.457202 2.01336e-17 0.318943 -0.328806 
-5.45075e-19 -0.231287 0.00890175 -5.45075e-19 -0.218787 0.00890175 -2.1803e-18 -0.262646 0.035607 
2.80426e-17 -0.423701 -0.45797 2.80426e-17 -0.298701 -0.45797 2.03218e-17 -0.319806 -0.331881 
-5.45075e-19 -0.293787 0.00890175 -5.45075e-19 -0.281287 0.00890175 -2.1803e-18 -0.287646 0.035607 
-2.62027e-18 0.306956 0.109459 -6.55067e-19 0.354864 0.177365 -6.55067e-19 0.342364 0.177365 
-1.87854e-17 -0.354586 0.340122 -1.42639e-17 -0.451146 0.26628 -6.60986e-18 -0.401146 0.24128 
1.02054e-18 -0.0166667 -0.05 4.08216e-18 -0.0666667 -0.1 1.02054e-18 -0.0166667 -0.15 
-2.1803e-18 -0.25848 0.0689403 -5.45075e-19 -0.21462 0.0422351 -5.45075e-19 -0.21462 0.142235 
-1.3471e-18 -0.0805999 0.0219998 -1.3471e-18 -0.0680999 0.0219998 -5.38839e-18 -0.0348995 0.087999 
0 -0.145833 0.0333333 0 -0.133333 0.0333333 0 -0.145833 0.133333 
0 -0.404167 -0.0666667 0 -0.416667 -0.166667 0 -0.404167 -0.166667 
-4.17739e-18 0.336294 0.234889 -4.17739e-18 0.348794 0.234889 -1.67096e-17 0.282676 0.339555 
4.08216e-18 -0.0958333 -0.133333 1.02054e-18 -0.0958333 -0.183333 1.02054e-18 -0.0833333 -0.183333 
0 -0.354167 -0.0666667 0 -0.366667 -0.166667 0 -0.354167 -0.166667 
0 0.458333 0.166667 0 0.470833 0.0666667 0 0.470833 0.166667 
0 0.0958333 0.133333 0 0.0833333 0.0333333 0 0.0958333 0.0333333 
-1.67096e-17 0.207676 0.339555 -4.17739e-18 0.148794 0.234889 -4.17739e-18 0.161294 0.234889 
-6.55067e-19 0.209031 0.177365 -6.55067e-19 0.196531 0.177365 -2.62027e-18 0.248623 0.109459 
2.55135e-18 0.420833 -0.208333 1.02054e-17 0.470833 -0.233333 2.55135e-18 0.433333 -0.208333 
2.48204e-18 0.281819 -0.207202 9.92817e-18 0.289776 -0.228806 2.48204e-18 0.294319 -0.207202 
0 -0.195833 0.0333333 0 -0.183333 0.0333333 0 -0.195833 0.133333 
[...]
CELL_DATA 588
SCALARS Material%20Id int
LOOKUP_TABLE default
1 1 1 1 1 1 1 1 1 
1 1 1 1 1 1 1 1 1 
1 1 1 1 1 1 1 1 1 
1 1 1 1 1 1 1 1 1 
1 1 1 1 1 1 1 1 1 
1 1 1 1 1 1 1 1 1 
1 1 1 1 1 1 1 1 1 
1 1 1 1 1 1 1 1 1 
1 1 1 1 1 1 1 1 1 
1 1 1 1 1 1 1 1 1 
1 1 1 1 1 1 1 1 1 
1 1 1 1 1 2 2 2 2 
2 2 2 2 2 2 2 2 2 
2 2 2 2 2 2 2 2 2 
2 2 2 2 2 2 2 2 2 
2 2 2 2 2 2 2 2 2 
2 2 2 2 2 2 2 2 2 
2 2 2 2 2 2 2 2 2 
2 2 2 2 2 2 2 2 2 
2 2 2 2 2 2 2 2 2 
2 2 2 2 2 2 2 2 2 
2 2 2 2 2 2 2 2 2 
2 2 2 2 2 2 2 2 2 
2 2 2 2 2 2 2 2 2 
2 2 2 2 2 2 2 2 2 
2 2 2 2 2 2 2 2 2 
2 2 2 2 2 2 2 2 2 
2 2 2 2 2 2 2 2 2 
2 2 2 2 2 2 2 2 2 
2 2 2 2 2 2 2 2 2 
2 2 2 2 2 2 2 2 2 
2 2 2 2 2 2 2 2 2 
2 2 2 2 2 2 2 2 2 
2 2 2 2 2 2 2 2 2 
2 2 2 2 2 2 2 2 2 
2 2 2 2 2 2 2 2 2 
2 2 2 2 2 2 2 2 2 
2 2 2 2 2 2 2 2 2 
2 2 2 2 2 2 2 2 2 
2 2 2 2 2 2 2 2 2 
2 2 2 2 2 2 2 2 2 
2 2 2 2 2 2 2 2 2 
2 2 3 3 3 3 3 3 3 
3 3 3 3 3 3 3 3 3 
3 3 3 3 3 3 3 3 3 
3 3 3 3 3 3 3 3 3 
3 3 3 3 3 3 3 3 3 
3 3 3 3 3 3 3 3 3 
3 3 3 3 3 3 3 3 3 
3 3 3 3 3 3 3 3 3 
3 3 3 3 3 3 3 3 3 
3 3 3 3 3 3 3 3 3 
3 3 3 3 3 3 3 3 3 
3 3 3 3 3 3 3 4 4 
4 4 4 4 4 4 4 4 4 
4 4 4 4 4 4 4 4 4 
4 4 4 4 4 4 4 4 4 
4 4 4 4 4 4 4 4 4 
4 4 4 4 4 4 4 4 4 
4 4 4 4 4 4 4 4 4 
4 4 4 4 4 4 4 4 4 
4 4 4 4 4 4 4 4 4 
4 4 4 4 4 4 4 4 4 
4 4 4 4 4 4 4 4 4 
4 4 4 4 4 4 4 4 4 
4 4 4 
FIELD FieldData 2
family_id 1 588 float
2 2 2 2 2 2 2 2 2 
2 2 2 2 2 2 2 2 2 
2 2 2 2 2 2 2 2 2 
2 2 2 2 2 2 2 2 2 
2 2 2 2 2 2 2 2 2 
2 2 2 2 2 2 2 2 2 
2 2 2 2 2 2 2 2 2 
2 2 2 2 2 2 2 2 2 
2 2 2 2 2 2 2 2 2 
2 2 2 2 2 2 2 2 2 
2 2 2 2 2 2 2 2 2 
2 2 2 2 2 2 2 2 2 
2 2 2 2 2 2 2 2 2 
2 2 2 2 2 2 2 2 2 
2 2 2 2 2 2 2 2 2 
2 2 2 2 2 2 2 2 2 
2 2 2 2 2 2 2 2 2 
2 2 2 2 2 2 2 2 2 
2 2 2 2 2 2 2 2 2 
2 2 2 2 2 2 2 2 2 
2 2 2 2 2 2 2 2 2 
2 2 2 2 2 2 2 2 2 
2 2 2 2 2 2 2 2 2 
2 2 2 2 2 2 2 2 2 
2 2 2 2 2 2 2 2 2 
2 2 2 2 2 2 2 2 2 
2 2 2 2 2 2 2 2 2 
2 2 2 2 2 2 2 2 2 
2 2 2 2 2 2 2 2 2 
2 2 2 2 2 2 2 2 2 
2 2 2 2 2 2 2 2 2 
2 2 2 2 2 2 2 2 2 
2 2 2 2 2 2 2 2 2 
2 2 2 2 2 2 2 2 2 
2 2 2 2 2 2 2 2 2 
2 2 2 2 2 2 2 2 2 
2 2 2 2 2 2 2 2 2 
2 2 2 2 2 2 2 2 2 
2 2 2 2 2 2 2 2 2 
2 2 2 2 2 2 2 2 2 
2 2 2 2 2 2 2 2 2 
2 2 2 2 2 2 2 2 2 
2 2 2 2 2 2 2 2 2 
2 2 2 2 2 2 2 2 2 
2 2 2 2 2 2 2 2 2 
2 2 2 2 2 2 2 2 2 
2 2 2 2 2 2 2 2 2 
2 2 2 2 2 2 2 2 2 
2 2 2 2 2 2 2 2 2 
2 2 2 2 2 2 2 2 2 
2 2 2 2 2 2 2 2 2 
2 2 2 2 2 2 2 2 2 
2 2 2 2 2 2 2 2 2 
2 2 2 2 2 2 2 2 2 
2 2 2 2 2 2 2 2 2 
2 2 2 2 2 2 2 2 2 
2 2 2 2 2 2 2 2 2 
2 2 2 2 2 2 2 2 2 
2 2 2 2 2 2 2 2 2 
2 2 2 2 2 2 2 2 2 
2 2 2 2 2 2 2 2 2 
2 2 2 2 2 2 2 2 2 
2 2 2 2 2 2 2 2 2 
2 2 2 2 2 2 2 2 2 
2 2 2 2 2 2 2 2 2 
2 2 2 
evol_onen 1 588 float
0.0025 0.001875 0.001875 0.001875 0.001875 0.0003125 0.0193045 0.0025 0.0405574 
0.0273255 0.001875 0.00370329 0.0025 0.0025 0.0178493 0.0173231 0.0003125 0.0025 
0.001875 0.0405574 0.00275577 0.00275577 0.00275577 0.0003125 0.00275577 0.0273255 0.0178493 
0.0025 0.025 0.0178493 0.0178493 0.0025 0.00275577 0.0193045 0.0025 0.0173231 
0.0025 0.0251702 0.0025 0.001875 0.00275577 0.0025 0.001875 0.0025 0.025 
0.0251702 0.001875 0.0065625 0.0025 0.001875 0.001875 0.0025 0.0025 0.0003125 
0.00275577 0.0003125 0.00275577 0.00275577 0.00275577 0.0003125 0.0003125 0.0025 0.00275577 
0.00275577 0.00275577 0.0003125 0.0065625 0.0025 0.00275577 0.025 0.0025 0.0319474 
0.0025 0.00370329 0.0025 0.00370329 0.00370329 0.00370329 0.0025 0.0025 0.0025 
0.0025 0.00275577 0.0025 0.00370329 0.0319474 0.00275577 0.0025 0.00275577 0.025 
0.0025 0.0003125 0.00275577 0.0025 0.0065625 0.0003125 0.00275577 0.00275577 0.00275577 
0.00275577 0.001875 0.0065625 0.0003125 0.0003125 0.00164998 0.000625 0.0324825 0.00261665 
0.00249562 0.00261665 0.00125 0.00164998 0.00261665 0.00164998 0.0025 0.00125 0.0259739 
0.00059776 0.00249562 0.00247104 0.0025 0.0320989 0.000667631 0.0315224 0.000667631 0.00169765 
0.0122122 0.01 0.00877197 0.00164998 0.0025 0.0025 0.00261665 0.00125 0.0025 
0.0025 0.0025 0.00261665 0.00169765 0.000625 0.000540113 0.0025 0.000802354 0.000802354 
0.0025 0.0025 0.0137306 0.0025 0.0025 0.00125 0.00164998 0.0304685 0.0025 
0.0125438 0.00261665 0.00059776 0.00249562 0.000850019 0.00247104 0.00059776 0.00059776 0.0025 
0.0025 0.00247104 0.0025 0.00125 0.00249562 0.00125 0.00125 0.0025 0.00247104 
0.0025 0.0025 0.0025 0.00247104 0.000625 0.000625 0.00059776 0.00125 0.0025 
0.0025 0.0104184 0.000540113 0.0025 0.0321545 0.00639482 0.000625 0.00125 0.0113335 
0.000802354 0.000625 0.0025 0.000625 0.00257284 0.0025 0.00257284 0.00261665 0.00249562 
0.0025 0.0025 0.01 0.000850019 0.00164998 0.00249562 0.00249562 0.0025 0.0025 
0.00247104 0.00183237 0.000802354 0.0025 0.0123636 0.00588579 0.000625 0.0025 0.0025 
0.0025 0.0025 0.0113335 0.0025 0.000625 0.0025 0.0025 0.00169765 0.00169765 
0.0261357 0.0241402 0.0163892 0.000802354 0.00169765 0.00125 0.0025 0.00164998 0.0025 
0.00125 0.0025 0.000540113 0.000850019 0.00257284 0.0025 0.00257284 0.00125 0.000540113 
0.0025 0.00059776 0.0025 0.000850019 0.01 0.00125 0.0025 0.0025 0.00183237 
0.00183237 0.0125438 0.00125 0.0025 0.0025 0.000625 0.000625 0.0025 0.0025 
0.00249562 0.00375 0.0025 0.0025 0.0025 0.0025 0.0157668 0.000540113 0.00169765 
0.000540113 0.00958159 0.00169765 0.0025 0.0025 0.00835992 0.000850019 0.0025 0.00169765 
0.0025 0.000802354 0.00125 0.00125 0.00257284 0.00257284 0.01 0.00125 0.000667631 
0.000667631 0.00257284 0.0258553 0.00125 0.00125 0.00059776 0.00059776 0.00183237 0.00183237 
0.015788 0.00059776 0.000802354 0.000802354 0.0025 0.0025 0.0025 0.000667631 0.000625 
0.00508583 0.0025 0.0025 0.000625 0.000625 0.000850019 0.000850019 0.0025 0.0025 
0.00261665 0.00261665 0.000540113 0.00375 0.00125 0.00125 0.0025 0.0025 0.0025 
0.0025 0.00125 0.0025 0.00257284 0.00257284 0.00125 0.00125 0.00872803 0.0025 
0.00183237 0.00183237 0.00249562 0.00249562 0.00125 0.00125 0.00247104 0.0324825 0.0025 
0.0025 0.000625 0.00125 0.0025 0.0025 0.000625 0.000625 0.000540113 0.000540113 
0.0025 0.0025 0.0025 0.0025 0.00125 0.00247104 0.00125 0.00125 0.00261665 
0.00261665 0.0025 0.00488759 0.00125 0.00125 0.00257284 0.00257284 0.0025 0.0025 
0.000667631 0.000667631 0.00914008 0.0025 0.00249562 0.00249562 0.0025 0.0025 0.00247104 
0.00639482 0.00639482 0.0025 0.001875 0.00275577 0.001875 0.0003125 0.0025 0.0173231 
0.001875 0.0025 0.0003125 0.0405574 0.00370329 0.0003125 0.0178493 0.0178493 0.0025 
0.001875 0.0025 0.0025 0.0405574 0.001875 0.0178493 0.0273255 0.0178493 0.0273255 
0.0025 0.0173231 0.00275577 0.0025 0.001875 0.0025 0.025 0.0025 0.00275577 
0.0065625 0.0193045 0.0003125 0.0193045 0.001875 0.0003125 0.0251702 0.001875 0.0025 
0.025 0.0025 0.0025 0.001875 0.001875 0.0025 0.0251702 0.001875 0.0065625 
0.0025 0.00275577 0.0003125 0.00275577 0.0003125 0.00275577 0.00275577 0.00275577 0.00275577 
0.0065625 0.0003125 0.0003125 0.00275577 0.0025 0.0319474 0.0025 0.00275577 0.0025 
0.025 0.0025 0.00370329 0.0025 0.00275577 0.0025 0.0025 0.00370329 0.00370329 
0.00370329 0.0025 0.0025 0.00370329 0.00275577 0.00275577 0.0025 0.0025 0.0003125 
0.0319474 0.025 0.0025 0.00275577 0.00275577 0.0065625 0.0025 0.00275577 0.0003125 
0.00275577 0.00275577 0.00275577 0.0003125 0.00275577 0.001875 0.00275577 0.0025 0.001875 
0.00275577 0.001875 0.0003125 0.0025 0.0173231 0.001875 0.0025 0.0003125 0.0405574 
0.00370329 0.0003125 0.0178493 0.0178493 0.0025 0.001875 0.0025 0.0025 0.0405574 
0.001875 0.0178493 0.0273255 0.0178493 0.0273255 0.0025 0.0173231 0.00275577 0.0025 
0.001875 0.0025 0.025 0.0025 0.00275577 0.0065625 0.0193045 0.0003125 0.0193045 
0.001875 0.0003125 0.0251702 0.001875 0.0025 0.025 0.0025 0.0025 0.001875 
0.001875 0.0025 0.0251702 0.001875 0.0065625 0.0025 0.00275577 0.0003125 0.00275577 
0.0003125 0.00275577 0.00275577 0.00275577 0.00275577 0.0065625 0.0003125 0.0003125 0.00275577 
0.0025 0.0319474 0.0025 0.00275577 0.0025 0.025 0.0025 0.00370329 0.0025 
0.00275577 0.0025 0.0025 0.00370329 0.00370329 0.00370329 0.0025 0.0025 0.00370329 
0.00275577 0.00275577 0.0025 0.0025 0.0003125 0.0319474 0.025 0.0025 0.00275577 
0.00275577 0.0065625 0.0025 0.00275577 0.0003125 0.00275577 0.00275577 0.00275577 0.0003125 
0.00275577 0.001875 0.00275577 
POINT_DATA 1764
SCALARS imt1 float
LOOKUP_TABLE default
2 1 2 2 2 1 2 2 1 
1 2 2 2 2 1 2 1 2 
1 1 1 2 1 2 1 1 1 
1 1 1 2 2 1 1 2 2 
2 1 2 2 1 2 1 1 1 
1 1 1 2 1 2 2 1 2 
2 2 1 1 1 1 1 2 2 
1 2 2 1 2 2 1 2 2 
2 2 1 1 1 1 1 1 1 
2 1 2 2 1 1 1 1 1 
1 1 1 2 1 2 2 2 1 
1 1 1 2 1 2 1 1 1 
2 1 2 1 1 2 2 1 2 
1 2 2 2 2 1 2 1 2 
1 2 2 2 1 2 2 1 1 
2 1 1 1 2 2 1 2 1 
2 1 2 2 1 2 1 2 2 
2 2 1 2 2 1 2 1 2 
2 2 1 2 1 2 2 2 1 
2 2 1 2 2 1 2 1 2 
1 2 2 2 1 2 1 2 2 
2 1 2 1 2 2 1 2 2 
1 1 2 2 2 1 1 2 2 
2 1 1 2 1 2 1 2 1 
2 1 2 1 2 2 2 1 2 
1 2 2 1 2 2 1 2 2 
2 1 2 2 1 2 2 1 2 
2 1 2 2 2 1 2 1 2 
1 2 2 1 1 2 2 2 1 
2 2 1 1 2 2 2 1 1 
2 1 2 2 1 2 2 2 1 
2 2 1 1 2 1 2 1 2 
2 2 1 2 2 1 2 2 1 
2 2 1 1 2 2 1 1 2 
1 2 2 1 2 2 2 2 2 
4 2 4 2 2 4 2 3 3 
4 2 4 3 3 2 2 4 4 
2 2 2 2 3 3 2 2 2 
2 2 3 2 4 4 2 2 2 
4 2 4 4 2 4 2 3 3 
2 2 3 2 2 2 2 2 2 
2 2 2 2 2 2 2 3 3 
2 2 3 2 2 4 2 2 3 
2 2 2 2 2 3 2 4 4 
3 3 2 2 4 4 2 4 4 
3 2 3 3 2 2 2 3 3 
3 3 2 4 2 4 4 2 4 
2 2 3 2 2 2 2 2 2 
4 4 2 3 2 3 2 2 2 
2 4 4 2 2 3 4 4 2 
2 2 2 2 2 3 2 4 2 
2 2 2 3 3 2 4 2 4 
4 2 4 3 2 3 2 3 3 
4 2 4 4 2 4 2 2 4 
2 4 4 2 3 3 3 2 3 
2 4 4 4 2 4 2 4 4 
2 2 2 2 4 4 2 3 3 
4 2 4 2 2 4 3 2 3 
2 3 3 4 2 4 3 3 2 
4 2 4 2 4 4 3 2 3 
2 2 3 2 3 2 4 2 4 
3 2 3 2 2 2 2 2 2 
2 3 3 2 2 2 2 2 2 
2 2 2 3 2 3 2 4 4 
4 4 2 2 3 3 2 2 3 
2 3 3 2 3 3 4 2 4 
2 4 4 2 4 4 2 2 4 
3 2 3 2 2 2 4 2 4 
4 2 4 2 2 4 2 2 4 
2 3 3 3 2 3 2 2 2 
2 4 4 2 2 2 2 2 2 
2 3 3 3 2 3 2 4 4 
2 2 3 2 2 3 2 2 2 
2 2 3 3 3 2 4 2 4 
2 2 4 3 2 3 3 2 3 
2 2 2 2 2 2 3 2 2 
2 2 2 3 2 3 2 4 4 
3 2 2 2 2 2 2 4 2 
2 2 2 2 4 4 4 2 4 
3 2 3 2 3 3 3 3 2 
2 3 3 4 2 4 4 2 4 
2 2 4 4 2 4 3 2 3 
3 2 3 2 2 4 2 4 4 
2 2 3 3 2 3 3 2 3 
3 2 3 2 2 2 2 2 2 
2 4 4 2 2 4 2 3 3 
2 3 3 4 2 4 2 2 4 
4 2 4 2 4 4 2 4 2 
2 4 2 3 2 2 2 4 2 
4 2 2 4 2 4 3 2 3 
4 2 4 2 2 3 3 2 3 
2 4 2 2 2 3 3 2 2 
3 3 2 3 3 2 3 2 3 
2 4 4 2 2 2 2 2 2 
2 2 2 2 3 3 2 3 3 
2 4 2 2 4 4 2 2 2 
2 2 2 2 3 3 2 2 3 
2 4 4 2 4 4 4 2 4 
4 2 4 3 2 3 3 2 3 
2 2 4 4 2 4 2 2 2 
2 2 2 3 2 3 3 2 3 
4 2 4 2 2 2 4 4 2 
4 2 2 2 4 2 2 4 2 
3 3 2 3 3 2 3 2 3 
3 2 3 3 2 2 3 2 2 
3 3 2 3 3 2 4 2 4 
2 4 4 2 2 2 2 2 2 
3 3 2 3 3 2 4 4 2 
2 4 4 2 2 2 2 2 4 
2 3 3 2 3 3 2 2 2 
4 4 2 2 2 3 2 2 3 
3 2 3 3 2 3 4 2 4 
4 2 4 2 2 2 2 2 2 
2 3 3 2 4 2 2 4 4 
4 2 4 4 2 4 2 4 4 
2 4 2 2 4 2 4 2 4 
4 2 4 4 2 4 4 2 4 
2 4 2 2 4 2 3 2 3 
3 2 3 2 4 4 2 3 3 
2 2 2 2 2 2 3 3 2 
3 3 2 4 4 2 4 2 2 
2 2 2 2 2 2 2 3 3 
2 3 3 4 4 2 2 4 2 
2 2 2 2 2 2 3 2 2 
3 2 3 4 2 4 4 2 4 
2 2 4 2 2 4 2 3 3 
2 2 2 2 2 2 3 3 3 
3 3 3 3 3 3 3 3 3 
3 3 3 3 3 3 3 3 3 
3 3 3 3 3 3 3 3 3 
3 3 3 3 3 3 3 3 3 
3 3 3 3 3 3 3 3 3 
3 3 3 3 3 3 3 3 3 
3 3 3 3 3 3 3 3 3 
3 3 3 3 3 3 3 3 3 
3 3 3 3 3 3 3 3 3 
3 3 3 3 3 3 3 3 3 
3 3 3 3 3 3 3 3 3 
3 3 3 3 3 3 3 3 3 
3 3 3 3 3 3 3 3 3 
3 3 3 3 3 3 3 3 3 
3 3 3 3 3 3 3 3 3 
3 3 3 3 3 3 3 3 3 
3 3 3 3 3 3 3 3 3 
3 3 3 3 3 3 3 3 3 
3 3 3 3 3 3 3 3 3 
3 3 3 3 3 3 3 3 3 
3 3 3 3 3 3 3 3 3 
3 3 3 3 3 3 3 3 3 
3 3 3 3 3 3 3 3 3 
3 3 3 3 3 3 3 3 3 
3 3 3 3 3 3 3 3 3 
3 3 3 3 3 3 3 3 3 
3 3 3 3 3 3 3 3 3 
3 3 3 3 3 3 3 3 3 
3 3 3 3 3 3 3 3 3 
3 3 3 3 3 3 3 3 3 
3 3 3 3 3 3 3 3 3 
3 3 3 3 3 3 3 3 3 
3 3 3 3 3 3 3 3 3 
3 3 3 3 3 3 3 3 3 
3 3 3 4 4 4 4 4 4 
4 4 4 4 4 4 4 4 4 
4 4 4 4 4 4 4 4 4 
4 4 4 4 4 4 4 4 4 
4 4 4 4 4 4 4 4 4 
4 4 4 4 4 4 4 4 4 
4 4 4 4 4 4 4 4 4 
4 4 4 4 4 4 4 4 4 
4 4 4 4 4 4 4 4 4 
4 4 4 4 4 4 4 4 4 
4 4 4 4 4 4 4 4 4 
4 4 4 4 4 4 4 4 4 
4 4 4 4 4 4 4 4 4 
4 4 4 4 4 4 4 4 4 
4 4 4 4 4 4 4 4 4 
4 4 4 4 4 4 4 4 4 
4 4 4 4 4 4 4 4 4 
4 4 4 4 4 4 4 4 4 
4 4 4 4 4 4 4 4 4 
4 4 4 4 4 4 4 4 4 
4 4 4 4 4 4 4 4 4 
4 4 4 4 4 4 4 4 4 
4 4 4 4 4 4 4 4 4 
4 4 4 4 4 4 4 4 4 
4 4 4 4 4 4 4 4 4 
4 4 4 4 4 4 4 4 4 
4 4 4 4 4 4 4 4 4 
4 4 4 4 4 4 4 4 4 
4 4 4 4 4 4 4 4 4 
4 4 4 4 4 4 4 4 4 
4 4 4 4 4 4 4 4 4 
4 4 4 4 4 4 4 4 4 
4 4 4 4 4 4 4 4 4 
4 4 4 4 4 4 4 4 4 
4 4 4 4 4 4 4 4 4 

FIELD FieldData 5
itp1 1 1764 float
12 10 2 2 2 10 2 12 10 
10 2 2 2 2 10 2 0 2 
0 10 0 2 10 2 10 10 0 
10 0 0 2 2 10 0 2 2 
2 10 2 2 10 2 10 0 10 
0 0 0 2 0 2 2 10 12 
2 2 10 0 10 10 0 2 2 
0 2 2 0 2 2 0 2 2 
2 2 0 0 0 10 10 0 10 
2 10 2 2 10 10 10 0 10 
10 0 10 2 10 2 2 2 0 
10 0 0 2 10 2 0 0 0 
2 10 2 10 0 2 2 10 2 
10 2 2 2 2 0 2 10 2 
10 12 2 2 10 2 2 10 10 
2 0 10 10 2 2 0 2 10 
2 10 2 2 10 2 10 2 2 
2 2 10 2 2 10 2 0 2 
2 2 0 2 0 2 2 2 0 
2 2 0 2 2 0 2 0 2 
0 2 2 2 10 2 0 2 2 
2 0 2 0 2 2 0 2 2 
0 10 2 2 2 10 0 2 2 
2 10 10 2 10 2 0 2 0 
2 10 2 0 2 2 2 10 2 
0 2 2 0 2 2 0 2 2 
2 10 2 2 10 2 2 10 2 
2 10 2 2 2 0 2 10 2 
0 2 2 0 0 2 2 2 0 
2 2 10 0 2 2 2 10 10 
2 10 2 2 0 2 2 2 0 
2 2 10 0 2 10 2 0 2 
2 2 0 2 2 0 2 2 0 
2 2 0 10 2 2 0 10 2 
0 2 2 0 2 2 2 2 0 
2 10 2 10 0 2 0 2 2 
2 0 2 2 2 0 0 2 2 
2 2 0 0 2 2 2 2 0 
2 2 2 0 2 2 10 10 0 
2 0 2 2 0 2 0 2 2 
2 2 2 10 10 0 2 2 0 
10 10 0 2 2 0 0 2 2 
0 10 2 2 0 2 0 2 2 
2 2 0 2 2 2 2 2 2 
2 2 0 0 2 2 2 2 2 
2 2 2 2 2 2 0 2 2 
2 2 0 2 10 2 2 0 2 
2 2 2 2 2 0 2 2 0 
2 2 2 2 2 12 10 0 0 
2 2 2 2 2 2 2 2 0 
2 2 0 0 0 2 2 2 2 
10 10 0 2 2 0 2 0 2 
2 0 2 2 0 2 0 2 2 
2 0 2 2 0 2 2 2 2 
2 12 2 0 2 2 2 2 2 
0 2 2 2 0 2 0 2 2 
2 2 0 2 2 2 0 2 2 
2 2 2 2 2 2 2 2 2 
0 2 2 2 10 2 2 2 10 
2 0 2 0 2 2 2 2 2 
2 2 2 0 2 2 2 0 2 
2 2 2 0 10 10 0 10 10 
10 2 2 2 0 2 10 10 0 
2 2 0 2 10 2 2 2 2 
2 2 10 0 2 2 2 2 2 
0 2 2 0 2 2 2 0 2 
2 2 2 2 2 2 0 2 2 
2 0 2 0 2 2 2 0 2 
2 0 2 2 2 2 2 2 2 
0 2 2 2 0 2 2 2 0 
2 2 2 0 0 10 0 10 10 
10 12 2 2 2 2 2 2 12 
2 2 2 2 2 2 0 10 10 
2 2 2 2 2 10 2 2 2 
2 2 2 2 0 2 2 0 2 
0 10 10 0 10 10 2 10 0 
0 2 2 2 0 2 0 2 2 
2 2 2 2 2 0 2 2 2 
2 2 0 2 2 2 2 0 2 
2 0 2 0 2 2 2 2 2 
0 2 2 2 0 2 2 0 2 
2 2 2 2 0 2 2 2 2 
2 0 2 0 2 2 0 2 2 
2 2 2 12 2 2 2 0 2 
2 0 2 10 0 10 2 0 2 
2 2 2 2 2 2 10 2 2 
10 2 2 2 2 2 2 2 2 
2 0 2 10 2 2 2 2 2 
2 2 2 12 12 2 12 12 2 
2 10 0 2 0 2 2 0 2 
2 0 2 0 2 2 2 0 2 
2 12 12 2 12 12 2 0 2 
2 2 0 2 2 2 2 0 2 
2 2 2 2 2 0 2 2 0 
2 2 0 0 2 2 0 2 2 
0 2 2 0 2 2 2 2 0 
2 2 0 0 2 2 0 0 2 
0 2 2 0 2 2 2 0 2 
2 0 2 2 0 2 2 0 2 
0 10 2 2 0 2 2 2 0 
2 2 0 2 2 2 2 2 2 
2 2 2 2 0 2 2 12 10 
2 10 0 2 2 2 2 2 2 
2 12 10 2 2 10 2 0 2 
2 0 2 2 2 2 2 2 2 
2 2 0 2 2 0 2 0 2 
10 2 2 2 2 0 2 2 0 
2 2 2 2 2 2 2 2 2 
2 2 2 0 2 2 2 2 2 
0 2 2 0 2 2 2 0 2 
2 2 0 2 0 2 2 2 2 
2 0 2 2 0 2 2 0 2 
2 0 2 2 0 2 2 2 0 
0 2 2 10 2 0 2 2 2 
2 2 2 2 10 12 0 2 2 
2 2 2 2 2 2 2 10 2 
2 10 2 2 0 2 2 0 2 
2 2 2 2 2 2 2 2 2 
2 2 2 0 2 2 0 2 2 
2 0 2 2 0 2 2 2 0 
2 2 0 2 2 2 2 0 10 
2 2 0 2 2 0 0 2 2 
0 2 2 2 2 2 2 2 2 
2 2 0 2 2 0 2 2 0 
2 2 2 2 0 2 2 0 2 
2 2 2 2 2 2 0 2 2 
0 10 10 0 10 10 10 12 2 
12 2 10 2 2 0 2 2 10 
0 2 2 10 2 2 0 0 0 
2 2 10 10 2 2 2 0 2 
10 0 10 2 0 2 0 2 2 
0 10 10 0 10 10 10 2 2 
2 2 10 10 2 2 10 2 12 
10 10 0 2 10 2 0 10 10 
0 10 0 0 10 10 0 0 10 
10 2 2 0 0 0 2 0 2 
10 2 2 2 2 10 10 2 2 
10 2 10 10 2 2 2 2 0 
10 0 2 10 0 0 0 2 2 
0 10 0 12 10 2 2 0 2 
2 0 10 2 10 2 10 2 2 
10 2 10 10 2 2 2 2 10 
2 10 2 2 2 10 10 2 2 
2 10 0 2 10 2 2 0 10 
2 2 10 2 2 0 0 2 2 
2 2 0 0 2 2 2 2 0 
2 2 0 2 0 2 2 0 2 
10 0 2 2 0 2 2 0 2 
2 0 2 10 2 2 0 0 2 
10 2 2 2 0 2 2 2 10 
10 2 10 10 2 2 2 0 2 
10 2 2 0 2 2 10 2 2 
10 2 2 2 0 2 2 0 2 
2 0 2 10 2 2 10 2 2 
2 0 2 0 2 2 2 0 2 
2 2 10 10 2 2 0 2 2 
0 2 0 10 2 10 10 2 2 
2 2 0 2 2 0 2 0 10 
2 2 10 2 2 0 0 2 2 
2 2 0 2 2 0 2 2 0 
2 0 2 2 2 0 2 10 2 
2 2 0 10 12 2 12 2 10 
2 2 0 2 2 10 0 2 2 
10 2 2 0 0 0 2 2 10 
10 2 2 2 0 2 10 0 10 
2 0 2 0 2 2 0 10 10 
0 10 10 10 2 2 2 2 10 
10 2 2 10 2 12 10 10 0 
2 10 2 0 10 10 0 10 0 
0 10 10 0 0 10 10 2 2 
0 0 0 2 0 2 10 2 2 
2 2 10 10 2 2 10 2 10 
10 2 2 2 2 0 10 0 2 
10 0 0 0 2 2 0 10 0 
12 10 2 2 0 2 2 0 10 
2 10 2 10 2 2 10 2 10 
10 2 2 2 2 10 2 10 2 
2 2 10 10 2 2 2 10 0 
2 10 2 2 0 10 2 2 10 
2 2 0 0 2 2 2 2 0 
0 2 2 2 2 0 2 2 0 
2 0 2 2 0 2 10 0 2 
2 0 2 2 0 2 2 0 2 
10 2 2 0 0 2 10 2 2 
2 0 2 2 2 10 10 2 10 
10 2 2 2 0 2 10 2 2 
0 2 2 10 2 2 10 2 2 
2 0 2 2 0 2 2 0 2 
10 2 2 10 2 2 2 0 2 
0 2 2 2 0 2 2 2 10 
10 2 2 0 2 2 0 2 0 
10 2 10 10 2 2 2 2 0 
2 2 0 2 0 10 2 2 10 
2 2 0 0 2 2 2 2 0 
2 2 0 2 2 0 2 0 2 
2 2 0 2 10 2 2 2 0 

dfield 1 1764 float
0 0.2 0 0 0 0.15 0 0 0.15 
0.15 0 0 0 0 0.15 0 0.025 0 
0.15 0.15 0.325 0 0.2 0 0.5 0.15 0.325 
0.5 0.15 0.325 0 0 0.15 0.15 0 0 
0 0.2 0 0 0.2 0 0.5 0.325 0.5 
0.325 0.15 0.15 0 0.025 0 0 0.2 0 
0 0 0.15 0.325 0.15 0.5 0.15 0 0 
0.15 0 0 0.15 0 0 0.025 0 0 
0 0 0.15 0.325 0.15 0.5 0.5 0.325 0.5 
0 0.2 0 0 0.2 0.2 0.5 0.325 0.5 
0.5 0.325 0.5 0 0.2 0 0 0 0.15 
0.15 0.15 0.325 0 0.2 0 0.15 0.15 0.325 
0 0.2 0 0.15 0.15 0 0 0.2 0 
0.15 0 0 0 0 0.15 0 0.2 0 
0.15 0 0 0 0.2 0 0 0.2 0.2 
0 0.15 0.15 0.15 0 0 0.025 0 0.2 
0 0.2 0 0 0.15 0 0.15 0 0 
0 0 0.2 0 0 0.2 0 0.025 0 
0 0 0.15 0 0.025 0 0 0 0.15 
0 0 0.15 0 0 0.15 0 0.025 0 
0.025 0 0 0 0.2 0 0.15 0 0 
0 0.15 0 0.15 0 0 0.025 0 0 
0.025 0.2 0 0 0 0.2 0.15 0 0 
0 0.2 0.2 0 0.2 0 0.15 0 0.15 
0 0.2 0 0.15 0 0 0 0.2 0 
0.15 0 0 0.15 0 0 0.15 0 0 
0 0.2 0 0 0.2 0 0 0.2 0 
0 0.2 0 0 0 0.15 0 0.2 0 
0.15 0 0 0.15 0.15 0 0 0 0.15 
0 0 0.2 0.15 0 0 0 0.2 0.2 
0 0.2 0 0 0.025 0 0 0 0.15 
0 0 0.2 0.025 0 0.2 0 0.025 0 
0 0 0.15 0 0 0.15 0 0 0.15 
0 0 0.15 0.15 0 0 0.025 0.2 0 
0.025 0 0 0.025 0 0 0 0 0.068543 
0 0.05 0 0.3 0.110345 0 0.0978665 0 0 
0 0.110345 0 0 0 0.0978665 0.0936799 0 0 
0 0 0.068543 0.0978665 0 0 0 0 0.068543 
0 0 0 0.0936799 0 0 0.05 0.3 0.0484513 
0 0.0484513 0 0 0.110345 0 0.0822093 0 0 
0 0 0 0.3 0.3 0.0441539 0 0 0.0548041 
0.3 0.3 0.0484513 0 0 0.0548041 0.0643246 0 0 
0.0822093 0.05 0 0 0.0936799 0 0.0548041 0 0 
0 0 0.068543 0 0 0 0 0 0 
0 0 0.0978665 0.0936799 0 0 0 0 0 
0 0 0 0 0 0 0.0978665 0 0 
0 0 0.0643246 0 0.05 0 0 0.0441539 0 
0 0 0 0 0 0.0643246 0 0 0.0643246 
0 0 0 0 0 0 0.3 0.132529 0.0978665 
0 0 0 0 0 0 0 0 0.0898553 
0 0 0.068543 0.0978665 0.132529 0 0 0 0 
0.3 0.3 0.110345 0 0 0.0978665 0 0.0484513 0 
0 0.110345 0 0 0.068543 0 0.0822093 0 0 
0 0.0484513 0 0 0.0484513 0 0 0 0 
0 0 0 0.0822093 0 0 0 0 0 
0.0898553 0 0 0 0.110345 0 0.0936799 0 0 
0 0 0.0936799 0 0 0 0.0822093 0 0 
0 0 0 0 0 0 0 0 0 
0.0822093 0 0 0 0.05 0 0 0 0.05 
0 0.0484513 0 0.0898553 0 0 0 0 0 
0 0 0 0.0643246 0 0 0 0.0441539 0 
0 0 0 0.0978665 0.05 0.3 0.0822093 0.3 0.3 
0.05 0 0 0 0.0898553 0 0.3 0.3 0.0978665 
0 0 0.0643246 0 0.05 0 0 0 0 
0 0 0.05 0.132529 0 0 0 0 0 
0.132529 0 0 0.0978665 0 0 0 0.110345 0 
0 0 0 0 0 0 0.0936799 0 0 
0 0.068543 0 0.068543 0 0 0 0.110345 0 
0 0.110345 0 0 0 0 0 0 0 
0.0822093 0 0 0 0.0548041 0 0 0 0.0643246 
0 0 0 0.0822093 0.132529 0.3 0.132529 0.3 0.3 
0.05 0 0 0 0 0 0 0 0 
0 0 0 0 0 0 0.0978665 0.3 0.3 
0 0 0 0 0 0.05 0 0 0 
0 0 0 0 0.0643246 0 0 0.0643246 0 
0.0441539 0.3 0.05 0.0822093 0.3 0.05 0 0.05 0.0978665 
0.0643246 0 0 0 0.0643246 0 0.0898553 0 0 
0 0 0 0 0 0.068543 0 0 0 
0 0 0.0898553 0 0 0 0 0.0441539 0 
0 0.068543 0 0.132529 0 0 0 0 0 
0.132529 0 0 0 0.0898553 0 0 0.0441539 0 
0 0 0 0 0.0484513 0 0 0 0 
0 0.068543 0 0.0898553 0 0 0.0898553 0 0 
0 0 0 0 0 0 0 0.0548041 0 
0 0.0548041 0 0.3 0.110345 0.3 0 0.0898553 0 
0 0 0 0 0 0 0.05 0 0 
0.05 0 0 0 0 0 0 0 0 
0 0.110345 0 0.3 0 0 0 0 0 
0 0 0 0 0 0 0 0 0 
0 0.3 0.0441539 0 0.0441539 0 0 0.0643246 0 
0 0.0441539 0 0.0643246 0 0 0 0.0643246 0 
0 0 0 0 0 0 0 0.068543 0 
0 0 0.068543 0 0 0 0 0.0643246 0 
0 0 0 0 0 0.0643246 0 0 0.0936799 
0 0 0.0936799 0.132529 0 0 0.132529 0 0 
0.0898553 0 0 0.0898553 0 0 0 0 0.0548041 
0 0 0.0548041 0.132529 0 0 0.132529 0.0822093 0 
0.0936799 0 0 0.0936799 0 0 0 0.0484513 0 
0 0.0484513 0 0 0.0548041 0 0 0.0548041 0 
0.0484513 0.3 0 0 0.0484513 0 0 0 0.0643246 
0 0 0.0643246 0 0 0 0 0 0 
0 0 0 0 0.0548041 0 0 0 0.05 
0 0.05 0.0484513 0 0 0 0 0 0 
0 0 0.05 0 0 0.05 0 0.068543 0 
0 0.068543 0 0 0 0 0 0 0 
0 0 0.0978665 0 0 0.0978665 0 0.0441539 0 
0.3 0 0 0 0 0.0936799 0 0 0.0936799 
0 0 0 0 0 0 0 0 0 
0 0 0 0.0936799 0 0 0 0 0 
0.132529 0 0 0.132529 0 0 0 0.0898553 0 
0 0 0.0898553 0 0.0548041 0 0 0 0 
0 0.0548041 0 0 0.0548041 0 0 0.110345 0 
0 0.110345 0 0 0.0898553 0 0 0 0.0898553 
0.0822093 0 0 0.3 0 0.110345 0 0 0 
0 0 0 0 0.05 0 0.0936799 0 0 
0 0 0 0 0 0 0 0.05 0 
0 0.05 0 0 0.0441539 0 0 0.0441539 0 
0 0 0 0 0 0 0 0 0 
0 0 0 0.0936799 0 0 0.0822093 0 0 