# vtk DataFile Version 4.1
vtk output
ASCII
DATASET UNSTRUCTURED_GRID
POINTS 9 float
-1 -1 0 -1 0 0 -1 1 0 
0 -1 0 0 0 0 0 1 0 
1 -1 0 1 0 0 1 1 0 

CELLS 8 32
3 4 7 5 
3 4 5 2 
3 1 4 2 
3 4 6 7 
3 3 6 4 
3 5 7 8 
3 3 4 1 
3 0 3 1 

CELL_TYPES 8
5
5
5
5
5
5
5
5

CELL_DATA 8
SCALARS Material%20Id int
LOOKUP_TABLE default
1 1 1 1 1 1 1 1 
POINT_DATA 9
SCALARS imt1 float
LOOKUP_TABLE default
1 1 1 1 1 1 1 1 1 

FIELD FieldData 3
itp1 1 9 float
10 10 10 10 0 10 10 10 10 

icr1 1 9 float
0 0 0 0 0 0 0 0 0 

isn1 1 9 float
0 0 0 0 0 0 0 0 0 

