# vtk DataFile Version 2.0
PFLOTRAN output
ASCII
DATASET UNSTRUCTURED_GRID
POINTS 9 double
-1.0 -1.0 0.0
-1.0 0.0 0.0
-1.0 1.0 0.0
0.0 -1.0 0.0
0.0 0.0 0.0
0.0 1.0 0.0
1.0 -1.0 0.0
1.0 0.0 0.0
1.0 1.0 0.0
CELLS 8 32
3 4 7 5
3 4 5 2
3 1 4 2
3 4 6 7
3 3 6 4
3 5 7 8
3 3 4 1
3 0 3 1
CELL_TYPES 8
5 5 5 5 5 5 5 5

POINT_DATA	 9
SCALARS Liquid_Pressure      float 1
LOOKUP_TABLE default
 1.013250E+06  1.013250E+06  1.013250E+06  1.013250E+06  1.013250E+06  1.013250E+06  1.013250E+06  1.013250E+06  1.013250E+06


SCALARS Permeability_X       float 1
LOOKUP_TABLE default
 1.000000E-12  1.000000E-12  1.000000E-12  1.000000E-12  1.000000E-12  1.000000E-12  1.000000E-12  1.000000E-12  1.000000E-12


SCALARS Material_ID          int 1
LOOKUP_TABLE default
  1
  1
  1
  1
  1
  1
  1
  1
  1


