# vtk DataFile Version 2.0
PFLOTRAN output
ASCII
DATASET UNSTRUCTURED_GRID
CELL_DATA    3753
SCALARS Liquid_Pressure      float 1
LOOKUP_TABLE default
 2.000000E+06  2.000000E+06  2.000000E+06  2.000000E+06  2.000000E+06  2.000000E+06  2.000000E+06  2.000000E+06  2.000000E+06  2.000000E+06
 2.000000E+06  2.000000E+06  2.000000E+06  2.000000E+06  2.000000E+06  2.000000E+06  2.000000E+06  2.000000E+06  2.000000E+06  2.000000E+06
 2.000000E+06  2.000000E+06  2.000000E+06  2.000000E+06  2.000000E+06  2.000000E+06  2.000000E+06  2.000000E+06  2.000000E+06  2.000000E+06
 2.000000E+06  2.000000E+06  2.000000E+06  1.998811E+06  1.998599E+06  1.996824E+06  1.998331E+06  1.994281E+06  1.999092E+06  1.981574E+06
 1.998789E+06  1.981362E+06  1.975885E+06  1.998358E+06  1.997957E+06  1.998660E+06  1.978850E+06  1.998150E+06  1.988214E+06  1.998672E+06
 1.967022E+06  1.998130E+06  1.998111E+06  1.954367E+06  1.997999E+06  1.978384E+06  1.997989E+06  1.976817E+06  1.969610E+06  1.998308E+06
 1.998512E+06  1.997735E+06  1.972913E+06  1.964358E+06  1.948189E+06  1.950950E+06  1.968566E+06  1.997148E+06  1.991308E+06  1.996733E+06
 1.993083E+06  1.996217E+06  1.997480E+06  1.996611E+06  1.981849E+06  1.996027E+06  1.997856E+06  1.996639E+06  1.966683E+06  1.966876E+06
 1.994728E+06  1.995368E+06  1.968099E+06  1.955083E+06  1.994684E+06  1.958577E+06  1.995196E+06  1.948899E+06  1.992588E+06  1.996156E+06
 1.964688E+06  1.945070E+06  1.997421E+06  1.994430E+06  1.993943E+06  1.958082E+06  1.980787E+06  1.949267E+06  1.997146E+06  1.993193E+06
 1.954755E+06  1.948417E+06  1.992530E+06  1.990497E+06  1.992356E+06  1.944243E+06  1.996661E+06  1.992545E+06  1.988764E+06  1.949784E+06
 1.982771E+06  1.997076E+06  1.943817E+06  1.956793E+06  1.961642E+06  1.994095E+06  1.990909E+06  1.989713E+06  1.957108E+06  1.984094E+06
 1.989449E+06  1.943702E+06  1.947590E+06  1.938246E+06  1.986928E+06  1.996873E+06  1.996522E+06  1.988884E+06  1.940399E+06  1.950497E+06
 1.943264E+06  1.962454E+06  1.984577E+06  1.986138E+06  1.981738E+06  1.943090E+06  1.983879E+06  1.944461E+06  1.993676E+06  1.996839E+06
 1.964411E+06  1.996778E+06  1.930962E+06  1.949701E+06  1.981244E+06  1.935324E+06  1.983860E+06  1.982682E+06  1.975075E+06  1.985735E+06
 1.942606E+06  1.942088E+06  1.948065E+06  1.962189E+06  1.941891E+06  1.978530E+06  1.942007E+06  1.942669E+06  1.995779E+06  1.980308E+06
 1.922954E+06  1.943299E+06  1.976332E+06  1.924945E+06  1.990174E+06  1.974020E+06  1.934166E+06  1.968095E+06  1.976898E+06  1.942327E+06
 1.996469E+06  1.975875E+06  1.939471E+06  1.930676E+06  1.952854E+06  1.938836E+06  1.940679E+06  1.975564E+06  1.982430E+06  1.941372E+06
 1.912749E+06  1.996377E+06  1.914661E+06  1.976915E+06  1.917705E+06  1.971717E+06  1.973237E+06  1.939363E+06  1.992380E+06  1.941468E+06
 1.929345E+06  1.995183E+06  1.940530E+06  1.939464E+06  1.910974E+06  1.973014E+06  1.948948E+06  1.970056E+06  1.903117E+06  1.938172E+06
 1.958665E+06  1.910041E+06  1.912693E+06  1.971047E+06  1.985607E+06  1.941354E+06  1.973648E+06  1.941455E+06  1.978229E+06  1.969654E+06
 1.897642E+06  1.995396E+06  1.925338E+06  1.920803E+06  1.893158E+06  1.970899E+06  1.940001E+06  1.889504E+06  1.887239E+06  1.956547E+06
 1.938850E+06  1.995037E+06  1.898565E+06  1.930537E+06  1.974547E+06  1.940380E+06  1.991206E+06  1.927958E+06  1.971639E+06  1.876623E+06
 1.885543E+06  1.880332E+06  1.966564E+06  1.935596E+06  1.878242E+06  1.958313E+06  1.962715E+06  1.980457E+06  1.940104E+06  1.937495E+06
 1.972348E+06  1.939627E+06  1.902295E+06  1.993681E+06  1.967495E+06  1.859224E+06  1.939014E+06  1.969624E+06  1.886131E+06  1.844424E+06
 1.873001E+06  1.942627E+06  1.937818E+06  1.865203E+06  1.934689E+06  1.857319E+06  1.861937E+06  1.972132E+06  1.875252E+06  1.986167E+06
 1.938321E+06  1.903387E+06  1.863700E+06  1.958102E+06  1.991319E+06  1.979336E+06  1.947979E+06  1.921893E+06  1.992809E+06  1.974116E+06
 1.970155E+06  1.913643E+06  1.819934E+06  1.937226E+06  1.878586E+06  1.817605E+06  1.965051E+06  1.936039E+06  1.991997E+06  1.936179E+06
 1.966175E+06  1.857188E+06  1.830496E+06  1.921543E+06  1.839554E+06  1.954490E+06  1.931773E+06  1.820026E+06  1.923634E+06  1.847270E+06
 1.969759E+06  1.988505E+06  1.933788E+06  1.856894E+06  1.965957E+06  1.882604E+06  1.980138E+06  1.866228E+06  1.991063E+06  1.930053E+06
 1.933516E+06  1.895017E+06  1.850192E+06  1.773776E+06  1.847638E+06  1.971923E+06  1.932424E+06  1.844725E+06  1.775905E+06  1.991471E+06
 1.953099E+06  1.894428E+06  1.963818E+06  1.931152E+06  1.829988E+06  1.955275E+06  1.889224E+06  1.924767E+06  1.991166E+06  1.758407E+06
 1.845027E+06  1.804164E+06  1.846590E+06  1.986143E+06  1.927055E+06  1.852618E+06  1.990195E+06  1.922061E+06  1.912353E+06  1.834158E+06
 1.861914E+06  1.841798E+06  1.761285E+06  1.894092E+06  1.960990E+06  1.974825E+06  1.832537E+06  1.927495E+06  1.778148E+06  1.727018E+06
 1.928362E+06  1.924776E+06  1.834374E+06  1.940361E+06  1.804634E+06  1.836162E+06  1.856311E+06  1.990926E+06  1.925641E+06  1.862202E+06
 1.990555E+06  1.834740E+06  1.909432E+06  1.860904E+06  1.835409E+06  1.987296E+06  1.729718E+06  1.709319E+06  1.914834E+06  1.950580E+06
 1.832367E+06  1.745877E+06  1.888157E+06  1.867991E+06  1.883945E+06  1.837870E+06  1.811019E+06  1.830594E+06  1.700680E+06  1.923941E+06
 1.895075E+06  1.920580E+06  1.974480E+06  1.766115E+06  1.953631E+06  1.818610E+06  1.990127E+06  1.757377E+06  1.841037E+06  1.988408E+06
 1.910738E+06  1.839744E+06  1.896739E+06  1.806518E+06  1.821615E+06  1.829017E+06  1.884591E+06  1.674579E+06  1.815883E+06  1.691855E+06
 1.876368E+06  1.804495E+06  1.853311E+06  1.811043E+06  1.901359E+06  1.687739E+06  1.975173E+06  1.834411E+06  1.659120E+06  1.838781E+06
 1.989239E+06  1.915359E+06  1.798292E+06  1.645833E+06  1.773176E+06  1.736841E+06  1.843665E+06  1.911001E+06  1.852683E+06  1.890693E+06
 1.699471E+06  1.912535E+06  1.775677E+06  1.816617E+06  1.977159E+06  1.985928E+06  1.784177E+06  1.768579E+06  1.863376E+06  1.645397E+06
 1.822149E+06  1.770319E+06  1.648834E+06  1.789193E+06  1.820131E+06  1.606154E+06  1.811608E+06  1.893770E+06  1.712476E+06  1.623685E+06
 1.801998E+06  1.812102E+06  1.921932E+06  1.730933E+06  1.732468E+06  1.900440E+06  1.870868E+06  1.808538E+06  1.801446E+06  1.663277E+06
 1.711371E+06  1.575874E+06  1.729126E+06  1.736873E+06  1.703402E+06  1.786117E+06  1.814439E+06  1.773694E+06  1.585992E+06  1.958374E+06
 1.973396E+06  1.900035E+06  1.682650E+06  1.769615E+06  1.537088E+06  1.597595E+06  1.668655E+06  1.831405E+06  1.626061E+06  1.746906E+06
 1.782664E+06  1.882578E+06  1.611965E+06  1.857102E+06  1.563484E+06  1.715703E+06  1.774580E+06  1.630983E+06  1.712635E+06  1.556375E+06
 1.654762E+06  1.772185E+06  1.617622E+06  1.640467E+06  1.609332E+06  1.835775E+06  1.735526E+06  1.645490E+06  1.729246E+06  1.764358E+06
 1.592340E+06  1.501281E+06  1.903269E+06  1.871414E+06  1.579715E+06  1.485141E+06  1.908310E+06  1.473936E+06  1.530338E+06  1.494531E+06
 1.689382E+06  1.569040E+06  1.820194E+06  1.468904E+06  1.767560E+06  1.545542E+06  1.643490E+06  1.595443E+06  1.505083E+06  1.534107E+06
 1.509308E+06  1.545477E+06  1.857292E+06  1.526102E+06  1.529011E+06  1.632962E+06  1.551647E+06  1.701512E+06  1.490974E+06  1.673042E+06
 1.611645E+06  1.651741E+06  1.534390E+06  1.565933E+06  1.666446E+06  1.457125E+06  1.674595E+06  1.449479E+06  1.643494E+06  1.656463E+06
 1.786145E+06  1.427983E+06  1.485483E+06  1.709557E+06  1.505871E+06  1.783290E+06  1.784567E+06  1.415081E+06  1.463443E+06  1.421897E+06
 1.574563E+06  1.595717E+06  1.476306E+06  1.426912E+06  1.484407E+06  1.390992E+06  1.467601E+06  1.451924E+06  1.450848E+06  1.666799E+06
 1.497368E+06  1.345697E+06  1.504158E+06  1.417752E+06  1.518306E+06  1.553627E+06  1.415129E+06  1.340033E+06  1.405835E+06  1.507250E+06
 1.456346E+06  1.537095E+06  1.542485E+06  1.414309E+06  1.378361E+06  1.375692E+06  1.385091E+06  1.347734E+06  1.407958E+06  1.491633E+06
 1.398855E+06  1.403847E+06  1.314084E+06  1.408062E+06  1.368056E+06  1.435154E+06  1.562146E+06  1.468299E+06  1.408691E+06  1.406283E+06
 1.377890E+06  1.314028E+06  1.388213E+06  1.435634E+06  1.274128E+06  1.278176E+06  1.279461E+06  1.277768E+06  1.276678E+06  1.277733E+06
 1.281445E+06  1.282194E+06  1.283522E+06  1.282132E+06  1.294820E+06  1.320791E+06  1.341051E+06  1.353590E+06  1.362401E+06  1.359143E+06
 1.346958E+06  1.338271E+06  1.329673E+06  1.320228E+06  1.315048E+06  1.311945E+06  1.315907E+06  1.326331E+06  1.330471E+06  1.334924E+06
 1.336752E+06  1.337654E+06  1.335945E+06  1.333711E+06  1.331018E+06  1.330765E+06  1.331862E+06  1.335987E+06  1.334670E+06  1.334957E+06
 1.335232E+06  1.335034E+06  1.337290E+06  1.338777E+06  1.330724E+06  1.284409E+06  1.281690E+06  1.319901E+06  1.310090E+06  1.334980E+06
 1.335038E+06  1.322130E+06  1.334164E+06  1.336655E+06  1.333875E+06  1.329216E+06  1.285494E+06  1.286501E+06  1.336597E+06  1.332211E+06
 1.281641E+06  1.342550E+06  1.320050E+06  1.297271E+06  1.334521E+06  1.334095E+06  1.323571E+06  1.282394E+06  1.332197E+06  1.327974E+06
 1.341368E+06  1.331478E+06  1.335069E+06  1.302957E+06  1.332352E+06  1.334477E+06  1.339137E+06  1.289434E+06  1.285659E+06  1.322149E+06
 1.333146E+06  1.334967E+06  1.325457E+06  1.337381E+06  1.333330E+06  1.302299E+06  1.314617E+06  1.331574E+06  1.324828E+06  1.331795E+06
 1.334559E+06  1.301031E+06  1.333168E+06  1.332802E+06  1.330186E+06  1.326755E+06  1.335182E+06  1.338318E+06  1.333008E+06  1.297033E+06
 1.300220E+06  1.307111E+06  1.332267E+06  1.302950E+06  1.332499E+06  1.334394E+06  1.330073E+06  1.324674E+06  1.308206E+06  1.334778E+06
 1.332939E+06  1.319386E+06  1.331955E+06  1.325513E+06  1.308884E+06  1.313428E+06  1.334788E+06  1.331823E+06  1.326854E+06  1.333645E+06
 1.303000E+06  1.332203E+06  1.325581E+06  1.327809E+06  1.331885E+06  1.328004E+06  1.304435E+06  1.331946E+06  1.308584E+06  1.333283E+06
 1.330196E+06  1.331921E+06  1.309374E+06  1.331766E+06  1.321204E+06  1.308257E+06  1.330679E+06  1.308751E+06  1.331785E+06  1.327691E+06
 1.306972E+06  1.332155E+06  1.315867E+06  1.331784E+06  1.326234E+06  1.328181E+06  1.331763E+06  1.309469E+06  1.312051E+06  1.331649E+06
 1.331743E+06  1.330144E+06  1.331793E+06  1.325885E+06  1.331808E+06  1.326872E+06  1.308637E+06  1.331767E+06  1.322972E+06  1.326140E+06
 1.328280E+06  1.309053E+06  1.331760E+06  1.309506E+06  1.331459E+06  1.309588E+06  1.331746E+06  1.331735E+06  1.327567E+06  1.329534E+06
 1.309379E+06  1.318050E+06  1.311057E+06  1.327102E+06  1.331667E+06  1.314417E+06  1.331745E+06  1.331537E+06  1.325929E+06  1.310359E+06
 1.309609E+06  1.312266E+06  1.324386E+06  1.326262E+06  1.309569E+06  1.330049E+06  1.330763E+06  1.326080E+06  1.331739E+06  1.320692E+06
 1.325884E+06  1.331741E+06  1.325980E+06  1.309608E+06  1.331728E+06  1.309614E+06  1.326056E+06  1.309631E+06  1.331739E+06  1.331701E+06
 1.331307E+06  1.328011E+06  1.310086E+06  1.330921E+06  1.316388E+06  1.331738E+06  1.309638E+06  1.311328E+06  1.326527E+06  1.331560E+06
 1.313060E+06  1.325801E+06  1.324167E+06  1.310593E+06  1.322623E+06  1.325737E+06  1.309642E+06  1.331736E+06  1.324981E+06  1.309741E+06
 1.320162E+06  1.325504E+06  1.329573E+06  1.331684E+06  1.325884E+06  1.331730E+06  1.330246E+06  1.331736E+06  1.328502E+06  1.309991E+06
 1.331721E+06  1.309649E+06  1.331736E+06  1.330873E+06  1.309675E+06  1.325811E+06  1.326989E+06  1.326054E+06  1.314459E+06  1.311855E+06
 1.310338E+06  1.310848E+06  1.318621E+06  1.323441E+06  1.325725E+06  1.324254E+06  1.309655E+06  1.331607E+06  1.322036E+06  1.324992E+06
 1.331331E+06  1.325523E+06  1.309772E+06  1.331734E+06  1.329657E+06  1.331697E+06  1.331736E+06  1.309654E+06  1.309657E+06  1.309672E+06
 1.309722E+06  1.309880E+06  1.310163E+06  1.310537E+06  1.311152E+06  1.312838E+06  1.316846E+06  1.320996E+06  1.322941E+06  1.323803E+06
 1.324466E+06  1.325104E+06  1.325494E+06  1.325688E+06  1.325782E+06  1.325852E+06  1.325995E+06  1.326528E+06  1.327793E+06  1.328859E+06
 1.329571E+06  1.330173E+06  1.330911E+06  1.331475E+06  1.331673E+06  1.331718E+06  1.331730E+06  1.331733E+06  1.331735E+06  1.331736E+06
 1.215001E+06  1.215000E+06  1.214997E+06  1.214992E+06  1.214988E+06  1.214987E+06  1.214986E+06  1.214985E+06  1.214989E+06  1.215026E+06
 1.215324E+06  1.216842E+06  1.221661E+06  1.229590E+06  1.236046E+06  1.239630E+06  1.244343E+06  1.254454E+06  1.267075E+06  1.272137E+06
 1.274200E+06  1.276307E+06  1.279588E+06  1.283039E+06  1.285588E+06  1.287708E+06  1.289697E+06  1.291141E+06  1.291869E+06  1.292242E+06
 1.292481E+06  1.292684E+06  1.292752E+06  1.258948E+06  1.273023E+06  1.234006E+06  1.277857E+06  1.214987E+06  1.214995E+06  1.214986E+06
 1.291516E+06  1.238089E+06  1.292729E+06  1.214990E+06  1.241689E+06  1.215173E+06  1.227755E+06  1.284077E+06  1.292240E+06  1.286705E+06
 1.215001E+06  1.215004E+06  1.216138E+06  1.275565E+06  1.220166E+06  1.248740E+06  1.280918E+06  1.289080E+06  1.290666E+06  1.270502E+06
 1.291932E+06  1.215000E+06  1.262884E+06  1.214987E+06  1.273907E+06  1.215001E+06  1.214987E+06  1.292973E+06  1.235171E+06  1.239261E+06
 1.292511E+06  1.214991E+06  1.292875E+06  1.214997E+06  1.277658E+06  1.214985E+06  1.215104E+06  1.285115E+06  1.243493E+06  1.291550E+06
 1.219229E+06  1.228146E+06  1.282316E+06  1.288190E+06  1.215941E+06  1.252875E+06  1.292104E+06  1.215014E+06  1.279610E+06  1.275276E+06
 1.215005E+06  1.271736E+06  1.264233E+06  1.215003E+06  1.290599E+06  1.237616E+06  1.215003E+06  1.239687E+06  1.214990E+06  1.234646E+06
 1.214993E+06  1.214995E+06  1.293437E+06  1.215001E+06  1.214988E+06  1.225475E+06  1.286228E+06  1.292487E+06  1.244309E+06  1.215701E+06
 1.283205E+06  1.291658E+06  1.280304E+06  1.276867E+06  1.240361E+06  1.293210E+06  1.220199E+06  1.249535E+06  1.288939E+06  1.215013E+06
 1.294351E+06  1.271281E+06  1.238137E+06  1.261137E+06  1.215180E+06  1.232555E+06  1.215009E+06  1.236374E+06  1.292152E+06  1.215001E+06
 1.214993E+06  1.214997E+06  1.290834E+06  1.215071E+06  1.215007E+06  1.227924E+06  1.219613E+06  1.284853E+06  1.238159E+06  1.295206E+06
 1.277914E+06  1.281205E+06  1.293229E+06  1.217220E+06  1.238655E+06  1.215031E+06  1.215062E+06  1.240256E+06  1.235460E+06  1.215024E+06
 1.268737E+06  1.237090E+06  1.243932E+06  1.294935E+06  1.287975E+06  1.215005E+06  1.254066E+06  1.291584E+06  1.292575E+06  1.216466E+06
 1.232794E+06  1.215024E+06  1.225748E+06  1.215017E+06  1.297235E+06  1.222393E+06  1.237314E+06  1.229497E+06  1.215010E+06  1.279007E+06
 1.281850E+06  1.271683E+06  1.276361E+06  1.215015E+06  1.216128E+06  1.288641E+06  1.236484E+06  1.215091E+06  1.294245E+06  1.237473E+06
 1.221315E+06  1.235350E+06  1.298227E+06  1.296626E+06  1.245823E+06  1.215067E+06  1.237043E+06  1.236940E+06  1.292788E+06  1.215022E+06
 1.238192E+06  1.215176E+06  1.215889E+06  1.231771E+06  1.279681E+06  1.255380E+06  1.225760E+06  1.220440E+06  1.228891E+06  1.289148E+06
 1.299924E+06  1.234496E+06  1.269691E+06  1.266570E+06  1.261857E+06  1.215076E+06  1.215056E+06  1.215145E+06  1.236961E+06  1.297562E+06
 1.215319E+06  1.215257E+06  1.220053E+06  1.236564E+06  1.224693E+06  1.240961E+06  1.277938E+06  1.301509E+06  1.236918E+06  1.237304E+06
 1.236913E+06  1.301411E+06  1.232757E+06  1.216774E+06  1.227877E+06  1.294654E+06  1.265090E+06  1.215212E+06  1.215359E+06  1.236866E+06
 1.215704E+06  1.220475E+06  1.226690E+06  1.253212E+06  1.224805E+06  1.243804E+06  1.257079E+06  1.235884E+06  1.303111E+06  1.285894E+06
 1.229840E+06  1.216368E+06  1.236861E+06  1.215552E+06  1.236880E+06  1.302871E+06  1.215788E+06  1.216232E+06  1.216124E+06  1.236936E+06
 1.225643E+06  1.236930E+06  1.232222E+06  1.273434E+06  1.304886E+06  1.256654E+06  1.226773E+06  1.262199E+06  1.236555E+06  1.221042E+06
 1.251064E+06  1.228083E+06  1.224556E+06  1.236757E+06  1.217524E+06  1.298807E+06  1.245735E+06  1.306571E+06  1.234987E+06  1.236723E+06
 1.227460E+06  1.217454E+06  1.236263E+06  1.306082E+06  1.227362E+06  1.235686E+06  1.239460E+06  1.230888E+06  1.252748E+06  1.219208E+06
 1.284263E+06  1.236877E+06  1.266993E+06  1.224347E+06  1.237050E+06  1.219369E+06  1.307795E+06  1.218811E+06  1.255452E+06  1.227144E+06
 1.308306E+06  1.237207E+06  1.231423E+06  1.229969E+06  1.236491E+06  1.225131E+06  1.235610E+06  1.226992E+06  1.236686E+06  1.248404E+06
 1.241766E+06  1.259215E+06  1.297854E+06  1.227750E+06  1.233215E+06  1.234074E+06  1.233887E+06  1.221516E+06  1.306197E+06  1.220789E+06
 1.230944E+06  1.228217E+06  1.310435E+06  1.308103E+06  1.229536E+06  1.234636E+06  1.269979E+06  1.237058E+06  1.227451E+06  1.252283E+06
 1.236735E+06  1.237341E+06  1.286945E+06  1.239062E+06  1.225271E+06  1.256000E+06  1.237654E+06  1.308786E+06  1.222001E+06  1.310940E+06
 1.234395E+06  1.228553E+06  1.232889E+06  1.237448E+06  1.311754E+06  1.242604E+06  1.225131E+06  1.248407E+06  1.240622E+06  1.237595E+06
 1.228775E+06  1.234508E+06  1.234422E+06  1.225626E+06  1.236349E+06  1.229779E+06  1.260092E+06  1.271001E+06  1.230587E+06  1.301671E+06
 1.235684E+06  1.231946E+06  1.240803E+06  1.223729E+06  1.224698E+06  1.228133E+06  1.234651E+06  1.238840E+06  1.244379E+06  1.248935E+06
 1.247719E+06  1.246365E+06  1.243136E+06  1.235037E+06  1.226851E+06  1.223748E+06  1.223918E+06  1.225877E+06  1.228646E+06  1.233726E+06
 1.237910E+06  1.239587E+06  1.240118E+06  1.239963E+06  1.238295E+06  1.236441E+06  1.233761E+06  1.230247E+06  1.228605E+06  1.229740E+06
 1.234451E+06  1.241065E+06  1.248731E+06  1.253077E+06  1.256275E+06  1.261082E+06  1.268418E+06  1.281695E+06  1.298035E+06  1.309449E+06
 1.313871E+06  1.313409E+06  1.307207E+06  1.299585E+06  1.229270E+06  1.237846E+06  1.255805E+06  1.313398E+06  1.250122E+06  1.258568E+06
 1.262134E+06  1.241793E+06  1.245353E+06  1.244307E+06  1.280271E+06  1.268079E+06  1.313644E+06  1.240920E+06  1.264736E+06  1.243720E+06
 1.266385E+06  1.315472E+06  1.261514E+06  1.257421E+06  1.252343E+06  1.253386E+06  1.299140E+06  1.316474E+06  1.241097E+06  1.317037E+06
 1.246477E+06  1.264520E+06  1.278565E+06  1.242141E+06  1.311257E+06  1.269042E+06  1.246452E+06  1.261847E+06  1.251072E+06  1.273720E+06
 1.253630E+06  1.241743E+06  1.263194E+06  1.241389E+06  1.269882E+06  1.257956E+06  1.316271E+06  1.271076E+06  1.243379E+06  1.259618E+06
 1.317183E+06  1.248834E+06  1.276682E+06  1.270493E+06  1.247174E+06  1.247049E+06  1.317689E+06  1.269639E+06  1.246424E+06  1.269594E+06
 1.255529E+06  1.245617E+06  1.283057E+06  1.296377E+06  1.318142E+06  1.276474E+06  1.247364E+06  1.311214E+06  1.268442E+06  1.264595E+06
 1.266592E+06  1.254144E+06  1.247347E+06  1.282700E+06  1.268882E+06  1.317887E+06  1.273081E+06  1.266269E+06  1.282300E+06  1.250222E+06
 1.247175E+06  1.272937E+06  1.254752E+06  1.248176E+06  1.265918E+06  1.318225E+06  1.318848E+06  1.317402E+06  1.271314E+06  1.274975E+06
 1.294986E+06  1.247814E+06  1.251250E+06  1.319336E+06  1.264667E+06  1.247954E+06  1.281971E+06  1.249406E+06  1.270299E+06  1.266876E+06
 1.285657E+06  1.319627E+06  1.248467E+06  1.274827E+06  1.290099E+06  1.288281E+06  1.269634E+06  1.258905E+06  1.311044E+06  1.319523E+06
 1.273629E+06  1.273329E+06  1.276905E+06  1.275275E+06  1.250147E+06  1.253724E+06  1.261535E+06  1.282878E+06  1.272222E+06  1.291825E+06
 1.300459E+06  1.319943E+06  1.249788E+06  1.270153E+06  1.320645E+06  1.270130E+06  1.321286E+06  1.255637E+06  1.249918E+06  1.321226E+06
 1.251142E+06  1.293468E+06  1.271653E+06  1.277201E+06  1.278849E+06  1.294763E+06  1.270992E+06  1.321639E+06  1.277936E+06  1.296315E+06
 1.297917E+06  1.255573E+06  1.275234E+06  1.271680E+06  1.322821E+06  1.310812E+06  1.273934E+06  1.253525E+06  1.268987E+06  1.271390E+06
 1.277556E+06  1.278575E+06  1.323453E+06  1.277019E+06  1.302501E+06  1.319686E+06  1.257618E+06  1.299572E+06  1.255034E+06  1.324426E+06
 1.273035E+06  1.272256E+06  1.254648E+06  1.301703E+06  1.324644E+06  1.271874E+06  1.324533E+06  1.324051E+06  1.266114E+06  1.307291E+06
 1.290647E+06  1.266444E+06  1.304693E+06  1.326370E+06  1.272749E+06  1.279596E+06  1.262678E+06  1.278699E+06  1.313294E+06  1.274369E+06
 1.276324E+06  1.281317E+06  1.319164E+06  1.279506E+06  1.272542E+06  1.326898E+06  1.314694E+06  1.273223E+06  1.328510E+06  1.268357E+06
 1.283874E+06  1.278274E+06  1.270388E+06  1.328720E+06  1.269392E+06  1.285657E+06  1.312372E+06  1.271176E+06  1.311572E+06  1.328220E+06
 1.276568E+06  1.318917E+06  1.285892E+06  1.278242E+06  1.272723E+06  1.327919E+06  1.315511E+06  1.302713E+06  1.273961E+06  1.331142E+06
 1.327163E+06  1.321027E+06  1.281656E+06  1.275542E+06  1.280577E+06  1.273049E+06  1.330106E+06  1.328724E+06  1.272979E+06  1.272862E+06
 1.298557E+06  1.280045E+06  1.303751E+06  1.279948E+06  1.328712E+06  1.279030E+06  1.277350E+06  1.322485E+06  1.329357E+06  1.286233E+06
 1.294521E+06  1.287228E+06  1.311119E+06  1.302208E+06  1.333763E+06  1.276261E+06  1.301277E+06  1.328704E+06  1.331274E+06  1.331267E+06
 1.274919E+06  1.321931E+06  1.333280E+06  1.325990E+06  1.274029E+06  1.316029E+06  1.333660E+06  1.288598E+06  1.291384E+06  1.308892E+06
 1.289480E+06  1.279880E+06  1.331514E+06  1.273487E+06  1.284477E+06  1.274371E+06  1.279435E+06  1.278534E+06  1.273395E+06  1.330656E+06
 1.276417E+06  1.328804E+06  1.332323E+06  1.330395E+06  1.278201E+06  1.278428E+06  1.332524E+06  1.274965E+06  1.277609E+06  1.273951E+06
 1.295269E+06  1.325081E+06  1.322953E+06  1.331613E+06  1.318339E+06  1.273353E+06  1.277782E+06  1.284801E+06  1.275529E+06  1.330375E+06
 1.262487E+06  1.329460E+06  1.273014E+06  1.332232E+06  1.330892E+06  1.327755E+06  1.308575E+06  1.332137E+06  1.313582E+06  1.259448E+06
 1.262364E+06  1.317571E+06  1.275907E+06  1.267762E+06  1.273056E+06  1.274919E+06  1.257058E+06  1.272102E+06  1.330834E+06  1.273463E+06
 1.272522E+06  1.329430E+06  1.272291E+06  1.321906E+06  1.258579E+06  1.272129E+06  1.328460E+06  1.275326E+06  1.312743E+06  1.279388E+06
 1.328461E+06  1.330742E+06  1.331035E+06  1.294734E+06  1.274150E+06  1.264334E+06  1.315733E+06  1.305123E+06  1.330003E+06  1.329227E+06
 1.270904E+06  1.320543E+06  1.270747E+06  1.255870E+06  1.323883E+06  1.270827E+06  1.328025E+06  1.254872E+06  1.270928E+06  1.326520E+06
 1.330255E+06  1.271485E+06  1.254838E+06  1.269846E+06  1.259604E+06  1.256904E+06  1.306990E+06  1.309672E+06  1.271960E+06  1.269444E+06
 1.313822E+06  1.328453E+06  1.269449E+06  1.322907E+06  1.254820E+06  1.262000E+06  1.268691E+06  1.268383E+06  1.269082E+06  1.327082E+06
 1.325763E+06  1.321944E+06  1.323193E+06  1.324573E+06  1.327879E+06  1.277167E+06  1.270248E+06  1.309110E+06  1.295059E+06  1.260567E+06
 1.311812E+06  1.254162E+06  1.254040E+06  1.268111E+06  1.326242E+06  1.256022E+06  1.254516E+06  1.301827E+06  1.269244E+06  1.267165E+06
 1.266789E+06  1.265057E+06  1.266886E+06  1.317523E+06  1.266879E+06  1.310430E+06  1.322295E+06  1.303920E+06  1.318542E+06  1.305355E+06
 1.254468E+06  1.321872E+06  1.316961E+06  1.260059E+06  1.265472E+06  1.313299E+06  1.321704E+06  1.253723E+06  1.310167E+06  1.267167E+06
 1.254563E+06  1.256502E+06  1.267373E+06  1.273752E+06  1.301614E+06  1.265616E+06  1.253685E+06  1.266226E+06  1.264679E+06  1.265128E+06
 1.294894E+06  1.286706E+06  1.266145E+06  1.253707E+06  1.316092E+06  1.311895E+06  1.308423E+06  1.295616E+06  1.253536E+06  1.312991E+06
 1.265300E+06  1.294748E+06  1.293269E+06  1.261924E+06  1.256648E+06  1.293505E+06  1.305532E+06  1.253507E+06  1.253394E+06  1.261713E+06
 1.262873E+06  1.265812E+06  1.264017E+06  1.265915E+06  1.296307E+06  1.252113E+06  1.308609E+06  1.253383E+06  1.253604E+06  1.260563E+06
 1.264566E+06  1.288791E+06  1.299887E+06  1.289085E+06  1.254592E+06  1.284590E+06  1.300687E+06  1.264938E+06  1.253083E+06  1.277974E+06
 1.295804E+06  1.277307E+06  1.299327E+06  1.295097E+06  1.263554E+06  1.264730E+06  1.253255E+06  1.248494E+06  1.279463E+06  1.256487E+06
 1.250446E+06  1.267565E+06  1.259434E+06  1.278783E+06  1.265207E+06  1.271945E+06  1.272739E+06  1.289850E+06  1.288990E+06  1.270134E+06
 1.260860E+06  1.259159E+06  1.242730E+06  1.256966E+06  1.274305E+06  1.256558E+06  1.275778E+06  1.271610E+06  1.264323E+06  1.288063E+06
 1.253952E+06  1.252869E+06  1.268710E+06  1.270430E+06  1.253855E+06  1.254062E+06  1.254996E+06  1.257130E+06  1.258837E+06  1.259231E+06
 1.259516E+06  1.258727E+06  1.256444E+06  1.254403E+06  1.253361E+06  1.252738E+06  1.252573E+06  1.252423E+06  1.251770E+06  1.249717E+06
 1.243452E+06  1.238092E+06  1.235216E+06  1.235216E+06  1.240006E+06  1.247535E+06  1.253704E+06  1.257645E+06  1.260312E+06  1.261808E+06
 1.263145E+06  1.264468E+06  1.265230E+06  1.266011E+06  1.266601E+06  1.267132E+06  1.267549E+06  1.268019E+06  1.269479E+06  1.271937E+06
 1.274437E+06  1.277030E+06  1.278148E+06  1.277975E+06  1.277465E+06  1.276612E+06  1.263039E+06  1.252441E+06  1.276441E+06  1.275185E+06
 1.252846E+06  1.252543E+06  1.272074E+06  1.268938E+06  1.249459E+06  1.256621E+06  1.267869E+06  1.275802E+06  1.266437E+06  1.265095E+06
 1.242091E+06  1.255237E+06  1.256699E+06  1.275703E+06  1.255402E+06  1.246130E+06  1.254401E+06  1.255762E+06  1.252468E+06  1.267261E+06
 1.254471E+06  1.254682E+06  1.262922E+06  1.255827E+06  1.252960E+06  1.260868E+06  1.257509E+06  1.274894E+06  1.247716E+06  1.253044E+06
 1.252139E+06  1.270218E+06  1.244118E+06  1.253895E+06  1.268914E+06  1.273614E+06  1.261597E+06  1.275143E+06  1.259585E+06  1.244722E+06
 1.252598E+06  1.251218E+06  1.252391E+06  1.252501E+06  1.275096E+06  1.255410E+06  1.271697E+06  1.264789E+06  1.263241E+06  1.266268E+06
 1.268067E+06  1.254527E+06  1.255403E+06  1.251268E+06  1.254692E+06  1.274938E+06  1.267254E+06  1.268919E+06  1.250096E+06  1.254434E+06
 1.258151E+06  1.248878E+06  1.252445E+06  1.252663E+06  1.272928E+06  1.260808E+06  1.261887E+06  1.253395E+06  1.255285E+06  1.273976E+06
 1.270045E+06  1.254691E+06  1.274493E+06  1.248500E+06  1.252549E+06  1.252077E+06  1.252855E+06  1.263247E+06  1.259669E+06  1.249323E+06
 1.264695E+06  1.254449E+06  1.271616E+06  1.253876E+06  1.274588E+06  1.254384E+06  1.266249E+06  1.268619E+06  1.254427E+06  1.251917E+06
 1.274494E+06  1.267563E+06  1.252632E+06  1.252429E+06  1.252530E+06  1.262757E+06  1.254342E+06  1.253011E+06  1.270642E+06  1.251318E+06
 1.261504E+06  1.252694E+06  1.250664E+06  1.258547E+06  1.260513E+06  1.254102E+06  1.274024E+06  1.250995E+06  1.263792E+06  1.255383E+06
 1.265115E+06  1.269221E+06  1.262287E+06  1.273396E+06  1.252267E+06  1.272223E+06  1.253439E+06  1.254195E+06  1.252613E+06  1.254278E+06
 1.273993E+06  1.254268E+06  1.252754E+06  1.267860E+06  1.252458E+06  1.266429E+06  1.273934E+06  1.270130E+06  1.252675E+06  1.252907E+06
 1.261589E+06  1.252166E+06  1.254131E+06  1.263438E+06  1.260745E+06  1.252706E+06  1.253583E+06  1.252581E+06  1.259011E+06  1.251889E+06
 1.252005E+06  1.262550E+06  1.264917E+06  1.252163E+06  1.254124E+06  1.252441E+06  1.252664E+06  1.256040E+06  1.272978E+06  1.268523E+06
 1.271920E+06  1.270334E+06  1.253054E+06  1.273235E+06  1.273325E+06  1.253761E+06  1.267058E+06  1.252732E+06  1.254010E+06  1.266044E+06
 1.252776E+06  1.252560E+06  1.254013E+06  1.252700E+06  1.264481E+06  1.262241E+06  1.252475E+06  1.263701E+06  1.253837E+06  1.252720E+06
 1.259419E+06  1.252563E+06  1.252390E+06  1.263151E+06  1.252683E+06  1.261467E+06  1.267359E+06  1.253817E+06  1.268364E+06  1.272633E+06
 1.253175E+06  1.252639E+06  1.252864E+06  1.269455E+06  1.265524E+06  1.272297E+06  1.271740E+06  1.252514E+06  1.257066E+06  1.252497E+06
 1.270561E+06  1.253424E+06  1.253736E+06  1.252712E+06  1.264765E+06  1.252724E+06  1.266425E+06  1.253673E+06  1.252764E+06  1.252741E+06
 1.263221E+06  1.252572E+06  1.264082E+06  1.262806E+06  1.252609E+06  1.253441E+06  1.252543E+06  1.253583E+06  1.252885E+06  1.260863E+06
 1.268769E+06  1.252673E+06  1.271807E+06  1.267260E+06  1.262334E+06  1.252785E+06  1.265954E+06  1.265461E+06  1.270734E+06  1.252834E+06
 1.252709E+06  1.252569E+06  1.252737E+06  1.263805E+06  1.257679E+06  1.252728E+06  1.253516E+06  1.271203E+06  1.253018E+06  1.264894E+06
 1.269701E+06  1.252585E+06  1.254405E+06  1.271457E+06  1.252611E+06  1.252757E+06  1.252638E+06  1.253360E+06  1.266389E+06  1.252748E+06
 1.268266E+06  1.253411E+06  1.252603E+06  1.263552E+06  1.263038E+06  1.262330E+06  1.264363E+06  1.252787E+06  1.265880E+06  1.271163E+06
 1.265460E+06  1.267129E+06  1.253169E+06  1.252729E+06  1.252743E+06  1.253147E+06  1.260621E+06  1.252690E+06  1.252598E+06  1.253366E+06
 1.270296E+06  1.252640E+06  1.252755E+06  1.269248E+06  1.257070E+06  1.265045E+06  1.252964E+06  1.252604E+06  1.252823E+06  1.252759E+06
 1.270666E+06  1.252709E+06  1.253253E+06  1.266104E+06  1.267989E+06  1.263400E+06  1.262910E+06  1.262122E+06  1.264168E+06  1.266731E+06
 1.252753E+06  1.252747E+06  1.265668E+06  1.252622E+06  1.253820E+06  1.252725E+06  1.252768E+06  1.270712E+06  1.253251E+06  1.252635E+06
 1.252678E+06  1.253063E+06  1.269721E+06  1.252757E+06  1.260370E+06  1.265080E+06  1.270119E+06  1.269042E+06  1.252874E+06  1.256350E+06
 1.267912E+06  1.266322E+06  1.263519E+06  1.265965E+06  1.252623E+06  1.263036E+06  1.270435E+06  1.253431E+06  1.262425E+06  1.252628E+06
 1.252778E+06  1.252754E+06  1.252786E+06  1.252747E+06  1.253167E+06  1.252759E+06  1.264208E+06  1.252756E+06  1.252726E+06  1.252651E+06
 1.265645E+06  1.266965E+06  1.253170E+06  1.253133E+06  1.252987E+06  1.252825E+06  1.252766E+06  1.252758E+06  1.252757E+06  1.252756E+06
 1.252754E+06  1.252743E+06  1.252713E+06  1.252666E+06  1.252636E+06  1.252638E+06  1.252725E+06  1.253079E+06  1.254586E+06  1.258348E+06
 1.261524E+06  1.262675E+06  1.263141E+06  1.263682E+06  1.264584E+06  1.265391E+06  1.265820E+06  1.266152E+06  1.266689E+06  1.267716E+06
 1.268893E+06  1.269653E+06  1.270069E+06  1.270331E+06  1.270424E+06  1.232127E+06  1.232133E+06  1.232150E+06  1.232171E+06  1.232192E+06