# vtk DataFile Version 2.0
PFLOTRAN output
ASCII
DATASET UNSTRUCTURED_GRID
POINTS 3753 double
-0.5 -0.5 0.0
-0.5 -0.46875 0.0
-0.5 -0.4375 0.0
-0.5 -0.40625 0.0
-0.5 -0.375 0.0
-0.5 -0.34375 0.0
-0.5 -0.3125 0.0
-0.5 -0.28125 0.0
-0.5 -0.25 0.0
-0.5 -0.21875 0.0
-0.5 -0.1875 0.0
-0.5 -0.15625 0.0
-0.5 -0.125 0.0
-0.5 -0.09375 0.0
-0.5 -0.0625 0.0
-0.5 -0.03125 0.0
-0.5 0.0 0.0
-0.5 0.03125 0.0
-0.5 0.0625 0.0
-0.5 0.09375 0.0
-0.5 0.125 0.0
-0.5 0.15625 0.0
-0.5 0.1875 0.0
-0.5 0.21875 0.0
-0.5 0.25 0.0
-0.5 0.28125 0.0
-0.5 0.3125 0.0
-0.5 0.34375 0.0
-0.5 0.375 0.0
-0.5 0.40625 0.0
-0.5 0.4375 0.0
-0.5 0.46875 0.0
-0.5 0.5 0.0
-0.4765587714972 -0.2652964891307 0.0
-0.4764123156683 -0.06873320252782 0.0
-0.4754567544337 0.01242535970106 0.0
-0.4748367910788 -0.4687573029936 0.0
-0.474771684362 0.04760434628202 0.0
-0.4747315441505 -0.4061100641948 0.0
-0.4743373305915 0.2820839126934 0.0
-0.4740599770669 -0.3518305437564 0.0
-0.4739181921245 0.2181719771552 0.0
-0.4730167255796 0.1371183077708 0.0
-0.4728999323091 -0.09934674064201 0.0
-0.4727341880255 -0.02639832360757 0.0
-0.4720966896086 -0.2065368875921 0.0
-0.4719483272199 0.3444321378718 0.0
-0.4715098235267 -0.122627840402 0.0
-0.4712788470348 0.07861116229423 0.0
-0.4712510895497 -0.2374325275945 0.0
-0.4710513540581 0.4069479981703 0.0
-0.4709943335959 -0.2927730541298 0.0
-0.4707495326381 -0.3229381287365 0.0
-0.4699425372632 0.4690373880218 0.0
-0.469574412298 -0.1458399733097 0.0
-0.4688736092395 0.1089069210794 0.0
-0.4663371346975 -0.1739660917764 0.0
-0.4645785707361 0.2507511825923 0.0
-0.463424938141 0.1627707021871 0.0
-0.4631345443951 -0.436963260402 0.0
-0.4624628258763 -0.3752986135662 0.0
-0.4617187486961 -0.5 0.0
-0.4604201823767 0.313321987019 0.0
-0.4578608667787 0.3754995130182 0.0
-0.4562499985099 0.5 0.0
-0.4558872901844 0.4385957356276 0.0
-0.4554975636182 0.1887787005021 0.0
-0.4544533355446 -0.05571919644459 0.0
-0.4535106545741 0.03305365113066 0.0
-0.4475190961907 -0.08576729825437 0.0
-0.4470033570297 0.006618751060321 0.0
-0.4462272496278 -0.2653327684194 0.0
-0.4447924117858 -0.4701526750424 0.0
-0.4446409572796 -0.1989666829913 0.0
-0.4439896371604 0.06174755522587 0.0
-0.443817281201 -0.1203565611809 0.0
-0.4437461295607 -0.4039903763908 0.0
-0.4436990730443 -0.2288961736862 0.0
-0.4433075661735 0.2213848071668 0.0
-0.4432077415302 0.2818508609763 0.0
-0.4427983569997 -0.3029245300552 0.0
-0.4422448218813 -0.338471272304 0.0
-0.4406012230486 0.0924226693075 0.0
-0.4382260055464 0.1297494632094 0.0
-0.4381495411809 -0.03525000179128 0.0
-0.4379356685516 0.3431049684847 0.0
-0.4370869439223 -0.1500341883629 0.0
-0.436651108276 0.4071359010813 0.0
-0.4350455112881 -0.01397519329328 0.0
-0.4343204770981 -0.3692620064452 0.0
-0.4339171310105 0.251743049472 0.0
-0.4333150383639 0.4701003331758 0.0
-0.431993921309 -0.4395847732917 0.0
-0.4282774875161 -0.1767531165614 0.0
-0.4265741889311 -0.05697713713723 0.0
-0.4252629351839 0.3093821061841 0.0
-0.4246039546915 0.03555341474709 0.0
-0.4242469734574 0.1602064397028 0.0
-0.4234374973923 -0.5 0.0
-0.4213471105707 -0.1037040948039 0.0
-0.4212849457656 0.197243737452 0.0
-0.4209115706314 0.3740890046053 0.0
-0.418811758863 -0.2465355530993 0.0
-0.4183602729418 -0.2822962790845 0.0
-0.4169291320782 -0.08133761664394 0.0
-0.4167378958194 0.4392417489717 0.0
-0.4163194721139 -0.4090968921066 0.0
-0.4143726105923 -0.2101960418718 0.0
-0.4139211144186 -0.3167597133932 0.0
-0.4137864932794 0.101360946854 0.0
-0.4136539922316 0.006896078336909 0.0
-0.4134797314668 -0.473267241702 0.0
-0.4124999970197 0.5 0.0
-0.411021885942 0.232719556315 0.0
-0.4108494182325 0.0674536627899 0.0
-0.4103191594645 -0.3806164366657 0.0
-0.4102805669361 -0.1271322818872 0.0
-0.4089210244698 -0.347984758596 0.0
-0.4082628266829 0.272510824108 0.0
-0.4028784006741 -0.02694271811835 0.0
-0.4023927337546 -0.1542573992624 0.0
-0.402190333064 0.4072478307836 0.0
-0.4020707769688 0.339422212146 0.0
-0.4009635305909 0.1269082291669 0.0
-0.400660825999 -0.06244894479204 0.0
-0.3997912100466 -0.4486834518222 0.0
-0.3997276907318 -0.4260947425986 0.0
-0.3980965155734 -0.1810879348229 0.0
-0.3952369834027 0.1794682122859 0.0
-0.3950849033653 0.304633475311 0.0
-0.3949113412981 0.4701659906021 0.0
-0.3935851965022 0.03431339557535 0.0
-0.3934530481958 -0.2647839917781 0.0
-0.3909979564958 -0.2301109305438 0.0
-0.3883306408444 -0.2980570139904 0.0
-0.3880223463066 0.3738323066015 0.0
-0.387921385601 -0.0963067728164 0.0
-0.3875544372192 0.2101735919677 0.0
-0.3859731656813 -0.4002357383076 0.0
-0.3851562460884 -0.5 0.0
-0.3835170059252 0.005737038214929 0.0
-0.3830411129287 -0.4672627061518 0.0
-0.382818371456 0.1526738919275 0.0
-0.3826477816433 0.2469542774132 0.0
-0.380917627151 -0.3311186979277 0.0
-0.3806564433001 0.09107299035503 0.0
-0.3794142377038 -0.1993442645981 0.0
-0.3790419666919 -0.1315536359208 0.0
-0.3787995135634 -0.0567132336384 0.0
-0.3785020896017 -0.3650258071941 0.0
-0.3780555655916 0.4383269413796 0.0
-0.3772240575686 0.05948401361415 0.0
-0.3737561873524 0.2809551352738 0.0
-0.3712257223834 -0.02465495503003 0.0
-0.3706562395185 0.4005631708849 0.0
-0.3695262882699 -0.2495013550418 0.0
-0.3692452842578 0.3479737596006 0.0
-0.3687499955296 0.5 0.0
-0.3683190850496 -0.434758905842 0.0
-0.3669708157367 -0.1632438066626 0.0
-0.3661791049178 0.1224343231927 0.0
-0.3654510971678 0.3175051580125 0.0
-0.3634623470714 -0.2785165225996 0.0
-0.3612765153226 0.1828723061934 0.0
-0.3600958369343 -0.3996075718016 0.0
-0.3599984693971 -0.1086279295885 0.0
-0.3592490829285 0.2220508555705 0.0
-0.3587963108847 -0.08013256831496 0.0
-0.3579756959293 -0.2223226286233 0.0
-0.3578179006126 0.4706834417512 0.0
-0.3570261478912 -0.472263444232 0.0
-0.3565698125685 -0.3097383729165 0.0
-0.35557851911 0.002707454634104 0.0
-0.3545421183987 0.03475603056528 0.0
-0.3511478228099 -0.04766261743924 0.0
-0.3506948491265 0.2564800282233 0.0
-0.3505264359144 0.3711715026969 0.0
-0.3493612628009 -0.1921957860789 0.0
-0.3485796753491 -0.3752741625923 0.0
-0.3471798635028 0.4177051035725 0.0
-0.3468968986076 0.1502661196803 0.0
-0.3468749947846 -0.5 0.0
-0.3467405288716 0.09579121030723 0.0
-0.3466195668348 -0.342717741466 0.0
-0.3456298223435 0.06684485207724 0.0
-0.34493461092 -0.133642076618 0.0
-0.3416547891858 -0.252484091573 0.0
-0.3415038095617 0.289682852702 0.0
-0.3390963964472 -0.4228068194955 0.0
-0.3383538687047 0.4404815856227 0.0
-0.3377446353194 -0.01914362449148 0.0
-0.3377375096221 -0.4483359213825 0.0
-0.3369342539335 0.3924039394749 0.0
-0.3355350915583 0.3440146404671 0.0
-0.3351269453074 0.2033525238099 0.0
-0.3332757181133 -0.2843336386609 0.0
-0.3332172857534 -0.07027171188097 0.0
-0.331755875682 -0.1601103692969 0.0
-0.3308876216536 0.1193297068031 0.0
-0.3298771546891 0.3166419140173 0.0
-0.3297019373115 -0.1016486831416 0.0
-0.3284769399368 0.01402055985692 0.0
-0.3273186356914 0.2337046427896 0.0
-0.326059369054 -0.2244963018381 0.0
-0.3259980762663 -0.4003929312995 0.0
-0.3258996799417 0.4663828874898 0.0
-0.3258795666935 -0.3177876448088 0.0
-0.3249999940395 0.5 0.0
-0.3237974994644 -0.3703159723177 0.0
-0.3236119262315 -0.1914713510979 0.0
-0.32352216691 0.1754224151308 0.0
-0.3219306620329 -0.4713520215362 0.0
-0.3202176456361 -0.04419246049571 0.0
-0.3183794107349 0.2682476510059 0.0
-0.3137680206104 0.04914044395841 0.0
-0.3122474431673 -0.2562648188178 0.0
-0.3115000326007 0.4079619847685 0.0
-0.3112839440264 0.08437650982795 0.0
-0.3109568228166 0.1478841709189 0.0
-0.310416652006 -0.1281163855566 0.0
-0.3096976941367 0.3693430048108 0.0
-0.3085937434807 -0.5 0.0
-0.3067964101586 -0.01516269820311 0.0
-0.306025862111 -0.07440079192042 0.0
-0.3060229029425 -0.3504034025245 0.0
-0.3060228591266 0.4411217908703 0.0
-0.3041339234035 -0.4330905624635 0.0
-0.3041028881441 0.2989713260411 0.0
-0.3035156294979 -0.2897538953457 0.0
-0.3033069758288 0.2040855928946 0.0
-0.3014338866791 0.01966349015993 0.0
-0.3012017222939 0.1184608031872 0.0
-0.3011848401137 -0.2066224299961 0.0
-0.3007857388698 0.3330916970089 0.0
-0.2998549473848 0.2442360360793 0.0
-0.2995233593984 -0.155170877354 0.0
-0.299522722784 -0.1795752758992 0.0
-0.2984570980054 -0.3900164462184 0.0
-0.297847950296 0.472089003452 0.0
-0.2972839271208 -0.1005898633311 0.0
-0.2972590774112 -0.3182836076007 0.0
-0.2921874929219 0.5 0.0
-0.2918704367568 -0.04821134338347 0.0
-0.2905367297813 -0.470809433074 0.0
-0.2884720302717 -0.2319868181784 0.0
-0.2859206690212 0.1742201610863 0.0
-0.2847283398154 0.4193646463241 0.0
-0.2836515837953 -0.2674574743054 0.0
-0.2833813383219 0.2746151426018 0.0
-0.2831605028274 0.2234311520458 0.0
-0.2810138069332 0.004825742022865 0.0
-0.2794917313253 -0.1418127358247 0.0
-0.2793783301745 0.3873491741251 0.0
-0.2777812269041 0.06856595926582 0.0
-0.2772731084265 0.3518057191275 0.0
-0.2770328497068 0.1415314704665 0.0
-0.2767579840809 0.103228126226 0.0
-0.2767065293736 -0.3344695252166 0.0
-0.2743689070414 -0.02275213054013 0.0
-0.2739331403472 -0.4165399446225 0.0
-0.273455167787 0.4465189653134 0.0
-0.2726191127238 -0.08043244018775 0.0
-0.2722291596086 0.03810720405563 0.0
-0.2722132652794 -0.1998647779578 0.0
-0.2718541633126 -0.446605251702 0.0
-0.2711881479166 -0.3901585798263 0.0
-0.270594113142 -0.1706201117562 0.0
-0.2705274809335 -0.1155202667392 0.0
-0.2703124921768 -0.5 0.0
-0.2700343620781 -0.3627673077125 0.0
-0.2690171061824 -0.3025999735935 0.0
-0.2679213801688 0.3103683431729 0.0
-0.266040742065 0.2435266571816 0.0
-0.2659457191046 0.4728575102105 0.0
-0.2645826216423 -0.04970417472218 0.0
-0.2632389821356 0.2018266767074 0.0
-0.262387327541 -0.2449645182662 0.0
-0.2593749918043 0.5 0.0
-0.2554772447088 -0.4760619655825 0.0
-0.2547406196075 0.4195294208329 0.0
-0.2539690475672 -0.2692524515718 0.0
-0.2531462339193 0.002480330304168 0.0
-0.2515250333874 0.2709900878974 0.0
-0.2511981570772 -0.1497638680761 0.0
-0.250473554465 0.1287792732739 0.0
-0.2504209306839 -0.2181956696705 0.0
[...]
POINT_DATA     3753
SCALARS Liquid_Pressure      float 1
LOOKUP_TABLE default
 1.013250E+06  1.013250E+06  1.013250E+06  1.013250E+06  1.013250E+06  1.013250E+06  1.013250E+06  1.013250E+06  1.013250E+06  1.013250E+06
 1.013250E+06  1.013250E+06  1.013250E+06  1.013250E+06  1.013250E+06  1.013250E+06  1.013250E+06  1.013250E+06  1.013250E+06  1.013250E+06
 1.013250E+06  1.013250E+06  1.013250E+06  1.013250E+06  1.013250E+06  1.013250E+06  1.013250E+06  1.013250E+06  1.013250E+06  1.013250E+06
 1.013250E+06  1.013250E+06  1.013250E+06  1.013250E+06  1.013250E+06  1.013250E+06  1.013250E+06  1.013250E+06  1.013250E+06  1.013250E+06
 1.013250E+06  1.013250E+06  1.013250E+06  1.013250E+06  1.013250E+06  1.013250E+06  1.013250E+06  1.013250E+06  1.013250E+06  1.013250E+06
 1.013250E+06  1.013250E+06  1.013250E+06  1.013250E+06  1.013250E+06  1.013250E+06  1.013250E+06  1.013250E+06  1.013250E+06  1.013250E+06
 1.013250E+06  1.013250E+06  1.013250E+06  1.013250E+06  1.013250E+06  1.013250E+06  1.013250E+06  1.013250E+06  1.013250E+06  1.013250E+06
 1.013250E+06  1.013250E+06  1.013250E+06  1.013250E+06  1.013250E+06  1.013250E+06  1.013250E+06  1.013250E+06  1.013250E+06  1.013250E+06
 1.013250E+06  1.013250E+06  1.013250E+06  1.013250E+06  1.013250E+06  1.013250E+06  1.013250E+06  1.013250E+06  1.013250E+06  1.013250E+06
 1.013250E+06  1.013250E+06  1.013250E+06  1.013250E+06  1.013250E+06  1.013250E+06  1.013250E+06  1.013250E+06  1.013250E+06  1.013250E+06
 1.013250E+06  1.013250E+06  1.013250E+06  1.013250E+06  1.013250E+06  1.013250E+06  1.013250E+06  1.013250E+06  1.013250E+06  1.013250E+06
 1.013250E+06  1.013250E+06  1.013250E+06  1.013250E+06  1.013250E+06  1.013250E+06  1.013250E+06  1.013250E+06  1.013250E+06  1.013250E+06
 1.013250E+06  1.013250E+06  1.013250E+06  1.013250E+06  1.013250E+06  1.013250E+06  1.013250E+06  1.013250E+06  1.013250E+06  1.013250E+06
 1.013250E+06  1.013250E+06  1.013250E+06  1.013250E+06  1.013250E+06  1.013250E+06  1.013250E+06  1.013250E+06  1.013250E+06  1.013250E+06
 1.013250E+06  1.013250E+06  1.013250E+06  1.013250E+06  1.013250E+06  1.013250E+06  1.013250E+06  1.013250E+06  1.013250E+06  1.013250E+06
 1.013250E+06  1.013250E+06  1.013250E+06  1.013250E+06  1.013250E+06  1.013250E+06  1.013250E+06  1.013250E+06  1.013250E+06  1.013250E+06
 1.013250E+06  1.013250E+06  1.013250E+06  1.013250E+06  1.013250E+06  1.013250E+06  1.013250E+06  1.013250E+06  1.013250E+06  1.013250E+06
 1.013250E+06  1.013250E+06  1.013250E+06  1.013250E+06  1.013250E+06  1.013250E+06  1.013250E+06  1.013250E+06  1.013250E+06  1.013250E+06
 1.013250E+06  1.013250E+06  1.013250E+06  1.013250E+06  1.013250E+06  1.013250E+06  1.013250E+06  1.013250E+06  1.013250E+06  1.013250E+06
 1.013250E+06  1.013250E+06  1.013250E+06  1.013250E+06  1.013250E+06  1.013250E+06  1.013250E+06  1.013250E+06  1.013250E+06  1.013250E+06
 1.013250E+06  1.013250E+06  1.013250E+06  1.013250E+06  1.013250E+06  1.013250E+06  1.013250E+06  1.013250E+06  1.013250E+06  1.013250E+06
 1.013250E+06  1.013250E+06  1.013250E+06  1.013250E+06  1.013250E+06  1.013250E+06  1.013250E+06  1.013250E+06  1.013250E+06  1.013250E+06
 1.013250E+06  1.013250E+06  1.013250E+06  1.013250E+06  1.013250E+06  1.013250E+06  1.013250E+06  1.013250E+06  1.013250E+06  1.013250E+06
 1.013250E+06  1.013250E+06  1.013250E+06  1.013250E+06  1.013250E+06  1.013250E+06  1.013250E+06  1.013250E+06  1.013250E+06  1.013250E+06
 1.013250E+06  1.013250E+06  1.013250E+06  1.013250E+06  1.013250E+06  1.013250E+06  1.013250E+06  1.013250E+06  1.013250E+06  1.013250E+06
 1.013250E+06  1.013250E+06  1.013250E+06  1.013250E+06  1.013250E+06  1.013250E+06  1.013250E+06  1.013250E+06  1.013250E+06  1.013250E+06
 1.013250E+06  1.013250E+06  1.013250E+06  1.013250E+06  1.013250E+06  1.013250E+06  1.013250E+06  1.013250E+06  1.013250E+06  1.013250E+06
 1.013250E+06  1.013250E+06  1.013250E+06  1.013250E+06  1.013250E+06  1.013250E+06  1.013250E+06  1.013250E+06  1.013250E+06  1.013250E+06
 1.013250E+06  1.013250E+06  1.013250E+06  1.013250E+06  1.013250E+06  1.013250E+06  1.013250E+06  1.013250E+06  1.013250E+06  1.013250E+06
 1.013250E+06  1.013250E+06  1.013250E+06  1.013250E+06  1.013250E+06  1.013250E+06  1.013250E+06  1.013250E+06  1.013250E+06  1.013250E+06
 1.013250E+06  1.013250E+06  1.013250E+06  1.013250E+06  1.013250E+06  1.013250E+06  1.013250E+06  1.013250E+06  1.013250E+06  1.013250E+06
 1.013250E+06  1.013250E+06  1.013250E+06  1.013250E+06  1.013250E+06  1.013250E+06  1.013250E+06  1.013250E+06  1.013250E+06  1.013250E+06
 1.013250E+06  1.013250E+06  1.013250E+06  1.013250E+06  1.013250E+06  1.013250E+06  1.013250E+06  1.013250E+06  1.013250E+06  1.013250E+06
 1.013250E+06  1.013250E+06  1.013250E+06  1.013250E+06  1.013250E+06  1.013250E+06  1.013250E+06  1.013250E+06  1.013250E+06  1.013250E+06
 1.013250E+06  1.013250E+06  1.013250E+06  1.013250E+06  1.013250E+06  1.013250E+06  1.013250E+06  1.013250E+06  1.013250E+06  1.013250E+06
 1.013250E+06  1.013250E+06  1.013250E+06  1.013250E+06  1.013250E+06  1.013250E+06  1.013250E+06  1.013250E+06  1.013250E+06  1.013250E+06
 1.013250E+06  1.013250E+06  1.013250E+06  1.013250E+06  1.013250E+06  1.013250E+06  1.013250E+06  1.013250E+06  1.013250E+06  1.013250E+06
 1.013250E+06  1.013250E+06  1.013250E+06  1.013250E+06  1.013250E+06  1.013250E+06  1.013250E+06  1.013250E+06  1.013250E+06  1.013250E+06
 1.013250E+06  1.013250E+06  1.013250E+06  1.013250E+06  1.013250E+06  1.013250E+06  1.013250E+06  1.013250E+06  1.013250E+06  1.013250E+06
 1.013250E+06  1.013250E+06  1.013250E+06  1.013250E+06  1.013250E+06  1.013250E+06  1.013250E+06  1.013250E+06  1.013250E+06  1.013250E+06
 1.013250E+06  1.013250E+06  1.013250E+06  1.013250E+06  1.013250E+06  1.013250E+06  1.013250E+06  1.013250E+06  1.013250E+06  1.013250E+06
 1.013250E+06  1.013250E+06  1.013250E+06  1.013250E+06  1.013250E+06  1.013250E+06  1.013250E+06  1.013250E+06  1.013250E+06  1.013250E+06
 1.013250E+06  1.013250E+06  1.013250E+06  1.013250E+06  1.013250E+06  1.013250E+06  1.013250E+06  1.013250E+06  1.013250E+06  1.013250E+06
 1.013250E+06  1.013250E+06  1.013250E+06  1.013250E+06  1.013250E+06  1.013250E+06  1.013250E+06  1.013250E+06  1.013250E+06  1.013250E+06
 1.013250E+06  1.013250E+06  1.013250E+06  1.013250E+06  1.013250E+06  1.013250E+06  1.013250E+06  1.013250E+06  1.013250E+06  1.013250E+06
 1.013250E+06  1.013250E+06  1.013250E+06  1.013250E+06  1.013250E+06  1.013250E+06  1.013250E+06  1.013250E+06  1.013250E+06  1.013250E+06
 1.013250E+06  1.013250E+06  1.013250E+06  1.013250E+06  1.013250E+06  1.013250E+06  1.013250E+06  1.013250E+06  1.013250E+06  1.013250E+06
 1.013250E+06  1.013250E+06  1.013250E+06  1.013250E+06  1.013250E+06  1.013250E+06  1.013250E+06  1.013250E+06  1.013250E+06  1.013250E+06
 1.013250E+06  1.013250E+06  1.013250E+06  1.013250E+06  1.013250E+06  1.013250E+06  1.013250E+06  1.013250E+06  1.013250E+06  1.013250E+06
 1.013250E+06  1.013250E+06  1.013250E+06  1.013250E+06  1.013250E+06  1.013250E+06  1.013250E+06  1.013250E+06  1.013250E+06  1.013250E+06
 1.013250E+06  1.013250E+06  1.013250E+06  1.013250E+06  1.013250E+06  1.013250E+06  1.013250E+06  1.013250E+06  1.013250E+06  1.013250E+06
 1.013250E+06  1.013250E+06  1.013250E+06  1.013250E+06  1.013250E+06  1.013250E+06  1.013250E+06  1.013250E+06  1.013250E+06  1.013250E+06
 1.013250E+06  1.013250E+06  1.013250E+06  1.013250E+06  1.013250E+06  1.013250E+06  1.013250E+06  1.013250E+06  1.013250E+06  1.013250E+06
 1.013250E+06  1.013250E+06  1.013250E+06  1.013250E+06  1.013250E+06  1.013250E+06  1.013250E+06  1.013250E+06  1.013250E+06  1.013250E+06
 1.013250E+06  1.013250E+06  1.013250E+06  1.013250E+06  1.013250E+06  1.013250E+06  1.013250E+06  1.013250E+06  1.013250E+06  1.013250E+06
 1.013250E+06  1.013250E+06  1.013250E+06  1.013250E+06  1.013250E+06  1.013250E+06  1.013250E+06  1.013250E+06  1.013250E+06  1.013250E+06
 1.013250E+06  1.013250E+06  1.013250E+06  1.013250E+06  1.013250E+06  1.013250E+06  1.013250E+06  1.013250E+06  1.013250E+06  1.013250E+06
 1.013250E+06  1.013250E+06  1.013250E+06  1.013250E+06  1.013250E+06  1.013250E+06  1.013250E+06  1.013250E+06  1.013250E+06  1.013250E+06
 1.013250E+06  1.013250E+06  1.013250E+06  1.013250E+06  1.013250E+06  1.013250E+06  1.013250E+06  1.013250E+06  1.013250E+06  1.013250E+06
 1.013250E+06  1.013250E+06  1.013250E+06  1.013250E+06  1.013250E+06  1.013250E+06  1.013250E+06  1.013250E+06  1.013250E+06  1.013250E+06
 1.013250E+06  1.013250E+06  1.013250E+06  1.013250E+06  1.013250E+06  1.013250E+06  1.013250E+06  1.013250E+06  1.013250E+06  1.013250E+06
 1.013250E+06  1.013250E+06  1.013250E+06  1.013250E+06  1.013250E+06  1.013250E+06  1.013250E+06  1.013250E+06  1.013250E+06  1.013250E+06
 1.013250E+06  1.013250E+06  1.013250E+06  1.013250E+06  1.013250E+06  1.013250E+06  1.013250E+06  1.013250E+06  1.013250E+06  1.013250E+06
 1.013250E+06  1.013250E+06  1.013250E+06  1.013250E+06  1.013250E+06  1.013250E+06  1.013250E+06  1.013250E+06  1.013250E+06  1.013250E+06
 1.013250E+06  1.013250E+06  1.013250E+06  1.013250E+06  1.013250E+06  1.013250E+06  1.013250E+06  1.013250E+06  1.013250E+06  1.013250E+06
 1.013250E+06  1.013250E+06  1.013250E+06  1.013250E+06  1.013250E+06  1.013250E+06  1.013250E+06  1.013250E+06  1.013250E+06  1.013250E+06
 1.013250E+06  1.013250E+06  1.013250E+06  1.013250E+06  1.013250E+06  1.013250E+06  1.013250E+06  1.013250E+06  1.013250E+06  1.013250E+06
 1.013250E+06  1.013250E+06  1.013250E+06  1.013250E+06  1.013250E+06  1.013250E+06  1.013250E+06  1.013250E+06  1.013250E+06  1.013250E+06
 1.013250E+06  1.013250E+06  1.013250E+06  1.013250E+06  1.013250E+06  1.013250E+06  1.013250E+06  1.013250E+06  1.013250E+06  1.013250E+06
 1.013250E+06  1.013250E+06  1.013250E+06  1.013250E+06  1.013250E+06  1.013250E+06  1.013250E+06  1.013250E+06  1.013250E+06  1.013250E+06
 1.013250E+06  1.013250E+06  1.013250E+06  1.013250E+06  1.013250E+06  1.013250E+06  1.013250E+06  1.013250E+06  1.013250E+06  1.013250E+06
 1.013250E+06  1.013250E+06  1.013250E+06  1.013250E+06  1.013250E+06  1.013250E+06  1.013250E+06  1.013250E+06  1.013250E+06  1.013250E+06
 1.013250E+06  1.013250E+06  1.013250E+06  1.013250E+06  1.013250E+06  1.013250E+06  1.013250E+06  1.013250E+06  1.013250E+06  1.013250E+06
 1.013250E+06  1.013250E+06  1.013250E+06  1.013250E+06  1.013250E+06  1.013250E+06  1.013250E+06  1.013250E+06  1.013250E+06  1.013250E+06
 1.013250E+06  1.013250E+06  1.013250E+06  1.013250E+06  1.013250E+06  1.013250E+06  1.013250E+06  1.013250E+06  1.013250E+06  1.013250E+06
 1.013250E+06  1.013250E+06  1.013250E+06  1.013250E+06  1.013250E+06  1.013250E+06  1.013250E+06  1.013250E+06  1.013250E+06  1.013250E+06
 1.013250E+06  1.013250E+06  1.013250E+06  1.013250E+06  1.013250E+06  1.013250E+06  1.013250E+06  1.013250E+06  1.013250E+06  1.013250E+06
 1.013250E+06  1.013250E+06  1.013250E+06  1.013250E+06  1.013250E+06  1.013250E+06  1.013250E+06  1.013250E+06  1.013250E+06  1.013250E+06
 1.013250E+06  1.013250E+06  1.013250E+06  1.013250E+06  1.013250E+06  1.013250E+06  1.013250E+06  1.013250E+06  1.013250E+06  1.013250E+06
 1.013250E+06  1.013250E+06  1.013250E+06  1.013250E+06  1.013250E+06  1.013250E+06  1.013250E+06  1.013250E+06  1.013250E+06  1.013250E+06
 1.013250E+06  1.013250E+06  1.013250E+06  1.013250E+06  1.013250E+06  1.013250E+06  1.013250E+06  1.013250E+06  1.013250E+06  1.013250E+06
 1.013250E+06  1.013250E+06  1.013250E+06  1.013250E+06  1.013250E+06  1.013250E+06  1.013250E+06  1.013250E+06  1.013250E+06  1.013250E+06
 1.013250E+06  1.013250E+06  1.013250E+06  1.013250E+06  1.013250E+06  1.013250E+06  1.013250E+06  1.013250E+06  1.013250E+06  1.013250E+06
 1.013250E+06  1.013250E+06  1.013250E+06  1.013250E+06  1.013250E+06  1.013250E+06  1.013250E+06  1.013250E+06  1.013250E+06  1.013250E+06
 1.013250E+06  1.013250E+06  1.013250E+06  1.013250E+06  1.013250E+06  1.013250E+06  1.013250E+06  1.013250E+06  1.013250E+06  1.013250E+06
 1.013250E+06  1.013250E+06  1.013250E+06  1.013250E+06  1.013250E+06  1.013250E+06  1.013250E+06  1.013250E+06  1.013250E+06  1.013250E+06
 1.013250E+06  1.013250E+06  1.013250E+06  1.013250E+06  1.013250E+06  1.013250E+06  1.013250E+06  1.013250E+06  1.013250E+06  1.013250E+06
 1.013250E+06  1.013250E+06  1.013250E+06  1.013250E+06  1.013250E+06  1.013250E+06  1.013250E+06  1.013250E+06  1.013250E+06  1.013250E+06
 1.013250E+06  1.013250E+06  1.013250E+06  1.013250E+06  1.013250E+06  1.013250E+06  1.013250E+06  1.013250E+06  1.013250E+06  1.013250E+06
 1.013250E+06  1.013250E+06  1.013250E+06  1.013250E+06  1.013250E+06  1.013250E+06  1.013250E+06  1.013250E+06  1.013250E+06  1.013250E+06
 1.013250E+06  1.013250E+06  1.013250E+06  1.013250E+06  1.013250E+06  1.013250E+06  1.013250E+06  1.013250E+06  1.013250E+06  1.013250E+06
 1.013250E+06  1.013250E+06  1.013250E+06  1.013250E+06  1.013250E+06  1.013250E+06  1.013250E+06  1.013250E+06  1.013250E+06  1.013250E+06
 1.013250E+06  1.013250E+06  1.013250E+06  1.013250E+06  1.013250E+06  1.013250E+06  1.013250E+06  1.013250E+06  1.013250E+06  1.013250E+06
 1.013250E+06  1.013250E+06  1.013250E+06  1.013250E+06  1.013250E+06  1.013250E+06  1.013250E+06  1.013250E+06  1.013250E+06  1.013250E+06
 1.013250E+06  1.013250E+06  1.013250E+06  1.013250E+06  1.013250E+06  1.013250E+06  1.013250E+06  1.013250E+06  1.013250E+06  1.013250E+06
 1.013250E+06  1.013250E+06  1.013250E+06  1.013250E+06  1.013250E+06  1.013250E+06  1.013250E+06  1.013250E+06  1.013250E+06  1.013250E+06
 1.013250E+06  1.013250E+06  1.013250E+06  1.013250E+06  1.013250E+06  1.013250E+06  1.013250E+06  1.013250E+06  1.013250E+06  1.013250E+06
 1.013250E+06  1.013250E+06  1.013250E+06  1.013250E+06  1.013250E+06  1.013250E+06  1.013250E+06  1.013250E+06  1.013250E+06  1.013250E+06
 1.013250E+06  1.013250E+06  1.013250E+06  1.013250E+06  1.013250E+06  1.013250E+06  1.013250E+06  1.013250E+06  1.013250E+06  1.013250E+06
 1.013250E+06  1.013250E+06  1.013250E+06  1.013250E+06  1.013250E+06  1.013250E+06  1.013250E+06  1.013250E+06  1.013250E+06  1.013250E+06
 1.013250E+06  1.013250E+06  1.013250E+06  1.013250E+06  1.013250E+06  1.013250E+06  1.013250E+06  1.013250E+06  1.013250E+06  1.013250E+06
 1.013250E+06  1.013250E+06  1.013250E+06  1.013250E+06  1.013250E+06  1.013250E+06  1.013250E+06  1.013250E+06  1.013250E+06  1.013250E+06
 1.013250E+06  1.013250E+06  1.013250E+06  1.013250E+06  1.013250E+06  1.013250E+06  1.013250E+06  1.013250E+06  1.013250E+06  1.013250E+06
 1.013250E+06  1.013250E+06  1.013250E+06  1.013250E+06  1.013250E+06  1.013250E+06  1.013250E+06  1.013250E+06  1.013250E+06  1.013250E+06
 1.013250E+06  1.013250E+06  1.013250E+06  1.013250E+06  1.013250E+06  1.013250E+06  1.013250E+06  1.013250E+06  1.013250E+06  1.013250E+06
 1.013250E+06  1.013250E+06  1.013250E+06  1.013250E+06  1.013250E+06  1.013250E+06  1.013250E+06  1.013250E+06  1.013250E+06  1.013250E+06
 1.013250E+06  1.013250E+06  1.013250E+06  1.013250E+06  1.013250E+06  1.013250E+06  1.013250E+06  1.013250E+06  1.013250E+06  1.013250E+06
 1.013250E+06  1.013250E+06  1.013250E+06  1.013250E+06  1.013250E+06  1.013250E+06  1.013250E+06  1.013250E+06  1.013250E+06  1.013250E+06
 1.013250E+06  1.013250E+06  1.013250E+06  1.013250E+06  1.013250E+06  1.013250E+06  1.013250E+06  1.013250E+06  1.013250E+06  1.013250E+06
 1.013250E+06  1.013250E+06  1.013250E+06  1.013250E+06  1.013250E+06  1.013250E+06  1.013250E+06  1.013250E+06  1.013250E+06  1.013250E+06
 1.013250E+06  1.013250E+06  1.013250E+06  1.013250E+06  1.013250E+06  1.013250E+06  1.013250E+06  1.013250E+06  1.013250E+06  1.013250E+06
 1.013250E+06  1.013250E+06  1.013250E+06  1.013250E+06  1.013250E+06  1.013250E+06  1.013250E+06  1.013250E+06  1.013250E+06  1.013250E+06
 1.013250E+06  1.013250E+06  1.013250E+06  1.013250E+06  1.013250E+06  1.013250E+06  1.013250E+06  1.013250E+06  1.013250E+06  1.013250E+06
 1.013250E+06  1.013250E+06  1.013250E+06  1.013250E+06  1.013250E+06  1.013250E+06  1.013250E+06  1.013250E+06  1.013250E+06  1.013250E+06
 1.013250E+06  1.013250E+06  1.013250E+06  1.013250E+06  1.013250E+06  1.013250E+06  1.013250E+06  1.013250E+06  1.013250E+06  1.013250E+06
 1.013250E+06  1.013250E+06  1.013250E+06  1.013250E+06  1.013250E+06  1.013250E+06  1.013250E+06  1.013250E+06  1.013250E+06  1.013250E+06
 1.013250E+06  1.013250E+06  1.013250E+06  1.013250E+06  1.013250E+06  1.013250E+06  1.013250E+06  1.013250E+06  1.013250E+06  1.013250E+06
 1.013250E+06  1.013250E+06  1.013250E+06  1.013250E+06  1.013250E+06  1.013250E+06  1.013250E+06  1.013250E+06  1.013250E+06  1.013250E+06
 1.013250E+06  1.013250E+06  1.013250E+06  1.013250E+06  1.013250E+06  1.013250E+06  1.013250E+06  1.013250E+06  1.013250E+06  1.013250E+06
 1.013250E+06  1.013250E+06  1.013250E+06  1.013250E+06  1.013250E+06  1.013250E+06  1.013250E+06  1.013250E+06  1.013250E+06  1.013250E+06
 1.013250E+06  1.013250E+06  1.013250E+06  1.013250E+06  1.013250E+06  1.013250E+06  1.013250E+06  1.013250E+06  1.013250E+06  1.013250E+06
 1.013250E+06  1.013250E+06  1.013250E+06  1.013250E+06  1.013250E+06  1.013250E+06  1.013250E+06  1.013250E+06  1.013250E+06  1.013250E+06
 1.013250E+06  1.013250E+06  1.013250E+06  1.013250E+06  1.013250E+06  1.013250E+06  1.013250E+06  1.013250E+06  1.013250E+06  1.013250E+06
 1.013250E+06  1.013250E+06  1.013250E+06  1.013250E+06  1.013250E+06  1.013250E+06  1.013250E+06  1.013250E+06  1.013250E+06  1.013250E+06
 1.013250E+06  1.013250E+06  1.013250E+06  1.013250E+06  1.013250E+06  1.013250E+06  1.013250E+06  1.013250E+06  1.013250E+06  1.013250E+06
 1.013250E+06  1.013250E+06  1.013250E+06  1.013250E+06  1.013250E+06  1.013250E+06  1.013250E+06  1.013250E+06  1.013250E+06  1.013250E+06
 1.013250E+06  1.013250E+06  1.013250E+06  1.013250E+06  1.013250E+06  1.013250E+06  1.013250E+06  1.013250E+06  1.013250E+06  1.013250E+06
 1.013250E+06  1.013250E+06  1.013250E+06  1.013250E+06  1.013250E+06  1.013250E+06  1.013250E+06  1.013250E+06  1.013250E+06  1.013250E+06
 1.013250E+06  1.013250E+06  1.013250E+06  1.013250E+06  1.013250E+06  1.013250E+06  1.013250E+06  1.013250E+06  1.013250E+06  1.013250E+06
 1.013250E+06  1.013250E+06  1.013250E+06  1.013250E+06  1.013250E+06  1.013250E+06  1.013250E+06  1.013250E+06  1.013250E+06  1.013250E+06
 1.013250E+06  1.013250E+06  1.013250E+06  1.013250E+06  1.013250E+06  1.013250E+06  1.013250E+06  1.013250E+06  1.013250E+06  1.013250E+06
 1.013250E+06  1.013250E+06  1.013250E+06  1.013250E+06  1.013250E+06  1.013250E+06  1.013250E+06  1.013250E+06  1.013250E+06  1.013250E+06
 1.013250E+06  1.013250E+06  1.013250E+06  1.013250E+06  1.013250E+06  1.013250E+06  1.013250E+06  1.013250E+06  1.013250E+06  1.013250E+06
 1.013250E+06  1.013250E+06  1.013250E+06  1.013250E+06  1.013250E+06  1.013250E+06  1.013250E+06  1.013250E+06  1.013250E+06  1.013250E+06
 1.013250E+06  1.013250E+06  1.013250E+06  1.013250E+06  1.013250E+06  1.013250E+06  1.013250E+06  1.013250E+06  1.013250E+06  1.013250E+06
 1.013250E+06  1.013250E+06  1.013250E+06  1.013250E+06  1.013250E+06  1.013250E+06  1.013250E+06  1.013250E+06  1.013250E+06  1.013250E+06
 1.013250E+06  1.013250E+06  1.013250E+06  1.013250E+06  1.013250E+06  1.013250E+06  1.013250E+06  1.013250E+06  1.013250E+06  1.013250E+06
 1.013250E+06  1.013250E+06  1.013250E+06  1.013250E+06  1.013250E+06  1.013250E+06  1.013250E+06  1.013250E+06  1.013250E+06  1.013250E+06
 1.013250E+06  1.013250E+06  1.013250E+06  1.013250E+06  1.013250E+06  1.013250E+06  1.013250E+06  1.013250E+06  1.013250E+06  1.013250E+06
 1.013250E+06  1.013250E+06  1.013250E+06  1.013250E+06  1.013250E+06  1.013250E+06  1.013250E+06  1.013250E+06  1.013250E+06  1.013250E+06
 1.013250E+06  1.013250E+06  1.013250E+06  1.013250E+06  1.013250E+06  1.013250E+06  1.013250E+06  1.013250E+06  1.013250E+06  1.013250E+06
 1.013250E+06  1.013250E+06  1.013250E+06  1.013250E+06  1.013250E+06  1.013250E+06  1.013250E+06  1.013250E+06  1.013250E+06  1.013250E+06